 Entering Gaussian System, Link 0=g09
 Input=TADF-11.gjf
 Output=TADF-11.log
 Initial command:
 /opt/gaussian/g09_d01/g09/l1.exe "/scratch/Gau-33416.inp" -scrdir="/scratch/"
 Entering Link 1 = /opt/gaussian/g09_d01/g09/l1.exe PID=     33417.
  
 Copyright (c) 1988,1990,1992,1993,1995,1998,2003,2009,2013,
            Gaussian, Inc.  All Rights Reserved.
  
 This is part of the Gaussian(R) 09 program.  It is based on
 the Gaussian(R) 03 system (copyright 2003, Gaussian, Inc.),
 the Gaussian(R) 98 system (copyright 1998, Gaussian, Inc.),
 the Gaussian(R) 94 system (copyright 1995, Gaussian, Inc.),
 the Gaussian 92(TM) system (copyright 1992, Gaussian, Inc.),
 the Gaussian 90(TM) system (copyright 1990, Gaussian, Inc.),
 the Gaussian 88(TM) system (copyright 1988, Gaussian, Inc.),
 the Gaussian 86(TM) system (copyright 1986, Carnegie Mellon
 University), and the Gaussian 82(TM) system (copyright 1983,
 Carnegie Mellon University). Gaussian is a federally registered
 trademark of Gaussian, Inc.
  
 This software contains proprietary and confidential information,
 including trade secrets, belonging to Gaussian, Inc.
  
 This software is provided under written license and may be
 used, copied, transmitted, or stored only in accord with that
 written license.
  
 The following legend is applicable only to US Government
 contracts under FAR:
  
                    RESTRICTED RIGHTS LEGEND
  
 Use, reproduction and disclosure by the US Government is
 subject to restrictions as set forth in subparagraphs (a)
 and (c) of the Commercial Computer Software - Restricted
 Rights clause in FAR 52.227-19.
  
 Gaussian, Inc.
 340 Quinnipiac St., Bldg. 40, Wallingford CT 06492
  
  
 ---------------------------------------------------------------
 Warning -- This program may not be used in any manner that
 competes with the business of Gaussian, Inc. or will provide
 assistance to any competitor of Gaussian, Inc.  The licensee
 of this program is prohibited from giving any competitor of
 Gaussian, Inc. access to this program.  By using this program,
 the user acknowledges that Gaussian, Inc. is engaged in the
 business of creating and licensing software in the field of
 computational chemistry and represents and warrants to the
 licensee that it is not a competitor of Gaussian, Inc. and that
 it will not use this program in any manner prohibited above.
 ---------------------------------------------------------------
  

 Cite this work as:
 Gaussian 09, Revision D.01,
 M. J. Frisch, G. W. Trucks, H. B. Schlegel, G. E. Scuseria, 
 M. A. Robb, J. R. Cheeseman, G. Scalmani, V. Barone, B. Mennucci, 
 G. A. Petersson, H. Nakatsuji, M. Caricato, X. Li, H. P. Hratchian, 
 A. F. Izmaylov, J. Bloino, G. Zheng, J. L. Sonnenberg, M. Hada, 
 M. Ehara, K. Toyota, R. Fukuda, J. Hasegawa, M. Ishida, T. Nakajima, 
 Y. Honda, O. Kitao, H. Nakai, T. Vreven, J. A. Montgomery, Jr., 
 J. E. Peralta, F. Ogliaro, M. Bearpark, J. J. Heyd, E. Brothers, 
 K. N. Kudin, V. N. Staroverov, T. Keith, R. Kobayashi, J. Normand, 
 K. Raghavachari, A. Rendell, J. C. Burant, S. S. Iyengar, J. Tomasi, 
 M. Cossi, N. Rega, J. M. Millam, M. Klene, J. E. Knox, J. B. Cross, 
 V. Bakken, C. Adamo, J. Jaramillo, R. Gomperts, R. E. Stratmann, 
 O. Yazyev, A. J. Austin, R. Cammi, C. Pomelli, J. W. Ochterski, 
 R. L. Martin, K. Morokuma, V. G. Zakrzewski, G. A. Voth, 
 P. Salvador, J. J. Dannenberg, S. Dapprich, A. D. Daniels, 
 O. Farkas, J. B. Foresman, J. V. Ortiz, J. Cioslowski, 
 and D. J. Fox, Gaussian, Inc., Wallingford CT, 2013.
 
 ******************************************
 Gaussian 09:  ES64L-G09RevD.01 24-Apr-2013
                31-Jul-2021 
 ******************************************
 %chk=TADF-11.chk
 %mem=12GB
 %nprocshared=12
 Will use up to   12 processors via shared memory.
 ------------------------------------------------------------------
 # opt b3lyp/6-31+g(d,p) iop(6/33=2,6/42=6) pop=mk scf=tight nosymm
 ------------------------------------------------------------------
 1/14=-1,18=20,19=15,26=3,38=1/1,3;
 2/9=110,12=2,15=1,17=6,18=5,40=1/2;
 3/5=1,6=6,7=111,11=2,16=1,25=1,30=1,71=1,74=-5/1,2,3;
 4//1;
 5/5=2,32=2,38=5/2;
 6/7=2,8=2,9=2,10=2,15=8,20=1,28=1,33=2,42=6/1,2;
 7/30=1/1,2,3,16;
 1/14=-1,18=20,19=15,26=3/3(2);
 2/9=110,15=1/2;
 99//99;
 2/9=110,15=1/2;
 3/5=1,6=6,7=111,11=2,16=1,25=1,30=1,71=1,74=-5/1,2,3;
 4/5=5,16=3,69=1/1;
 5/5=2,32=2,38=5/2;
 7/30=1/1,2,3,16;
 1/14=-1,18=20,19=15,26=3/3(-5);
 2/9=110,15=1/2;
 6/7=2,8=2,9=2,10=2,15=8,19=2,20=1,28=1,33=2,42=6/1,2;
 99/9=1/99;
 -------------------
 Title Card Required
 -------------------
 Symbolic Z-matrix:
 Charge =  0 Multiplicity = 1
 C                    -0.91693   1.589    -0.33938 
 C                    -0.77671   2.18705  -1.59517 
 C                    -1.43678   2.31551   0.73506 
 C                    -1.15253   3.5139   -1.77477 
 H                    -0.4111    1.60203  -2.43236 
 C                    -1.80238   3.64627   0.55843 
 H                    -1.56172   1.83728   1.70079 
 C                    -1.665     4.26806  -0.69902 
 H                    -1.06432   3.96945  -2.75462 
 H                    -2.20045   4.20879   1.39541 
 C                     1.29425  -0.08241   0.37743 
 C                     1.63355   0.01471   1.73015 
 C                     2.29148  -0.15384  -0.59851 
 C                     2.97232   0.0436    2.106 
 H                     0.85245   0.02684   2.48283 
 C                     3.63092  -0.11423  -0.22322 
 H                     2.01729  -0.24808  -1.64389 
 C                     3.99297  -0.01353   1.1351 
 H                     3.2351    0.09783   3.15646 
 H                     4.40295  -0.16553  -0.98265 
 N                    -2.04246   5.61423  -0.88174 
 N                     5.35023   0.01404   1.52105 
 C                    -1.33024   6.45191  -1.79155 
 C                    -2.03056   7.284    -2.67928 
 C                     0.07358   6.46794  -1.80018 
 C                    -1.33568   8.11814  -3.55601 
 H                    -3.11555   7.2743   -2.67577 
 C                     0.76096   7.29265  -2.69161 
 H                     0.62026   5.83427  -1.10929 
 C                     0.0621    8.12425  -3.57172 
 H                    -1.89075   8.75623  -4.23766 
 H                     1.84722   7.29397  -2.68744 
 H                     0.5998    8.76963  -4.25958 
 C                    -3.13389   6.16789  -0.14734 
 C                    -3.00173   7.41481   0.4825 
 C                    -4.35563   5.48111  -0.06099 
 C                    -4.07641   7.96475   1.18301 
 H                    -2.05915   7.9488    0.41756 
 C                    -5.41964   6.02963   0.65577 
 H                    -4.46581   4.52137  -0.55553 
 C                    -5.28817   7.27476   1.27866 
 H                    -3.95982   8.93101   1.66543 
 H                    -6.35861   5.48681   0.71499 
 H                    -6.12034   7.70218   1.82962 
 C                     6.33212  -0.69122   0.76088 
 C                     6.1252   -2.03209   0.39975 
 C                     7.52279  -0.05406   0.3789 
 C                     7.08967  -2.7163   -0.34092 
 H                     5.21027  -2.53193   0.70023 
 C                     8.49002  -0.75022  -0.3476 
 H                     7.6863    0.9821    0.65758 
 C                     8.2781   -2.08195  -0.71535 
 H                     6.91575  -3.75341  -0.6129 
 H                     9.40706  -0.24445  -0.63607 
 H                     9.02966  -2.61896  -1.28593 
 C                     5.77282   0.80638   2.62916 
 C                     5.2985    2.11779   2.79682 
 C                     6.68441   0.28526   3.56114 
 C                     5.71997   2.88446   3.88359 
 H                     4.60076   2.53075   2.07524 
 C                     7.11411   1.06443   4.63609 
 H                     7.05452  -0.72718   3.43659 
 C                     6.6319    2.36519   4.80747 
 H                     5.34362   3.89691   3.99931 
 H                     7.81967   0.64624   5.34831 
 H                     6.96272   2.96669   5.64859 
 S                    -0.43575  -0.1271   -0.10929 
 O                    -1.19944  -0.64407   1.04279 
 O                    -0.49926  -0.77833  -1.4321 
 

 GradGradGradGradGradGradGradGradGradGradGradGradGradGradGradGradGradGrad
 Berny optimization.
 Initialization pass.
                           ----------------------------
                           !    Initial Parameters    !
                           ! (Angstroms and Degrees)  !
 --------------------------                            --------------------------
 ! Name  Definition              Value          Derivative Info.                !
 --------------------------------------------------------------------------------
 ! R1    R(1,2)                  1.398          estimate D2E/DX2                !
 ! R2    R(1,3)                  1.3973         estimate D2E/DX2                !
 ! R3    R(1,67)                 1.7971         estimate D2E/DX2                !
 ! R4    R(2,4)                  1.3907         estimate D2E/DX2                !
 ! R5    R(2,5)                  1.0848         estimate D2E/DX2                !
 ! R6    R(3,6)                  1.3913         estimate D2E/DX2                !
 ! R7    R(3,7)                  1.0849         estimate D2E/DX2                !
 ! R8    R(4,8)                  1.4102         estimate D2E/DX2                !
 ! R9    R(4,9)                  1.0842         estimate D2E/DX2                !
 ! R10   R(6,8)                  1.4095         estimate D2E/DX2                !
 ! R11   R(6,10)                 1.0842         estimate D2E/DX2                !
 ! R12   R(8,21)                 1.41           estimate D2E/DX2                !
 ! R13   R(11,12)                1.398          estimate D2E/DX2                !
 ! R14   R(11,13)                1.3972         estimate D2E/DX2                !
 ! R15   R(11,67)                1.7977         estimate D2E/DX2                !
 ! R16   R(12,14)                1.3908         estimate D2E/DX2                !
 ! R17   R(12,15)                1.0848         estimate D2E/DX2                !
 ! R18   R(13,16)                1.3916         estimate D2E/DX2                !
 ! R19   R(13,17)                1.0848         estimate D2E/DX2                !
 ! R20   R(14,18)                1.4098         estimate D2E/DX2                !
 ! R21   R(14,19)                1.0842         estimate D2E/DX2                !
 ! R22   R(16,18)                1.4093         estimate D2E/DX2                !
 ! R23   R(16,20)                1.0842         estimate D2E/DX2                !
 ! R24   R(18,22)                1.4113         estimate D2E/DX2                !
 ! R25   R(21,23)                1.4271         estimate D2E/DX2                !
 ! R26   R(21,34)                1.4273         estimate D2E/DX2                !
 ! R27   R(22,45)                1.4281         estimate D2E/DX2                !
 ! R28   R(22,56)                1.4263         estimate D2E/DX2                !
 ! R29   R(23,24)                1.4039         estimate D2E/DX2                !
 ! R30   R(23,25)                1.4039         estimate D2E/DX2                !
 ! R31   R(24,26)                1.3955         estimate D2E/DX2                !
 ! R32   R(24,27)                1.085          estimate D2E/DX2                !
 ! R33   R(25,28)                1.3955         estimate D2E/DX2                !
 ! R34   R(25,29)                1.0852         estimate D2E/DX2                !
 ! R35   R(26,30)                1.3979         estimate D2E/DX2                !
 ! R36   R(26,31)                1.0862         estimate D2E/DX2                !
 ! R37   R(28,30)                1.398          estimate D2E/DX2                !
 ! R38   R(28,32)                1.0863         estimate D2E/DX2                !
 ! R39   R(30,33)                1.0857         estimate D2E/DX2                !
 ! R40   R(34,35)                1.4032         estimate D2E/DX2                !
 ! R41   R(34,36)                1.4042         estimate D2E/DX2                !
 ! R42   R(35,37)                1.3957         estimate D2E/DX2                !
 ! R43   R(35,38)                1.0853         estimate D2E/DX2                !
 ! R44   R(36,39)                1.3953         estimate D2E/DX2                !
 ! R45   R(36,40)                1.0853         estimate D2E/DX2                !
 ! R46   R(37,41)                1.3977         estimate D2E/DX2                !
 ! R47   R(37,42)                1.0863         estimate D2E/DX2                !
 ! R48   R(39,41)                1.3984         estimate D2E/DX2                !
 ! R49   R(39,43)                1.0862         estimate D2E/DX2                !
 ! R50   R(41,44)                1.0857         estimate D2E/DX2                !
 ! R51   R(45,46)                1.404          estimate D2E/DX2                !
 ! R52   R(45,47)                1.4034         estimate D2E/DX2                !
 ! R53   R(46,48)                1.3953         estimate D2E/DX2                !
 ! R54   R(46,49)                1.085          estimate D2E/DX2                !
 ! R55   R(47,50)                1.3957         estimate D2E/DX2                !
 ! R56   R(47,51)                1.0854         estimate D2E/DX2                !
 ! R57   R(48,52)                1.3982         estimate D2E/DX2                !
 ! R58   R(48,53)                1.0862         estimate D2E/DX2                !
 ! R59   R(50,52)                1.3977         estimate D2E/DX2                !
 ! R60   R(50,54)                1.0863         estimate D2E/DX2                !
 ! R61   R(52,55)                1.0857         estimate D2E/DX2                !
 ! R62   R(56,57)                1.4046         estimate D2E/DX2                !
 ! R63   R(56,58)                1.404          estimate D2E/DX2                !
 ! R64   R(57,59)                1.3952         estimate D2E/DX2                !
 ! R65   R(57,60)                1.0854         estimate D2E/DX2                !
 ! R66   R(58,61)                1.3954         estimate D2E/DX2                !
 ! R67   R(58,62)                1.0851         estimate D2E/DX2                !
 ! R68   R(59,63)                1.3981         estimate D2E/DX2                !
 ! R69   R(59,64)                1.0863         estimate D2E/DX2                !
 ! R70   R(61,63)                1.3978         estimate D2E/DX2                !
 ! R71   R(61,65)                1.0863         estimate D2E/DX2                !
 ! R72   R(63,66)                1.0857         estimate D2E/DX2                !
 ! R73   R(67,68)                1.4757         estimate D2E/DX2                !
 ! R74   R(67,69)                1.4758         estimate D2E/DX2                !
 ! A1    A(2,1,3)              120.3719         estimate D2E/DX2                !
 ! A2    A(2,1,67)             119.7808         estimate D2E/DX2                !
 ! A3    A(3,1,67)             119.8461         estimate D2E/DX2                !
 ! A4    A(1,2,4)              119.8062         estimate D2E/DX2                !
 ! A5    A(1,2,5)              119.7583         estimate D2E/DX2                !
 ! A6    A(4,2,5)              120.3938         estimate D2E/DX2                !
 ! A7    A(1,3,6)              119.8311         estimate D2E/DX2                !
 ! A8    A(1,3,7)              119.8764         estimate D2E/DX2                !
 ! A9    A(6,3,7)              120.2903         estimate D2E/DX2                !
 ! A10   A(2,4,8)              120.6593         estimate D2E/DX2                !
 ! A11   A(2,4,9)              119.7115         estimate D2E/DX2                !
 ! A12   A(8,4,9)              119.6232         estimate D2E/DX2                !
 ! A13   A(3,6,8)              120.6362         estimate D2E/DX2                !
 ! A14   A(3,6,10)             119.6521         estimate D2E/DX2                !
 ! A15   A(8,6,10)             119.7112         estimate D2E/DX2                !
 ! A16   A(4,8,6)              118.6889         estimate D2E/DX2                !
 ! A17   A(4,8,21)             120.5987         estimate D2E/DX2                !
 ! A18   A(6,8,21)             120.7103         estimate D2E/DX2                !
 ! A19   A(12,11,13)           120.412          estimate D2E/DX2                !
 ! A20   A(12,11,67)           119.8192         estimate D2E/DX2                !
 ! A21   A(13,11,67)           119.7674         estimate D2E/DX2                !
 ! A22   A(11,12,14)           119.7718         estimate D2E/DX2                !
 ! A23   A(11,12,15)           119.8277         estimate D2E/DX2                !
 ! A24   A(14,12,15)           120.3545         estimate D2E/DX2                !
 ! A25   A(11,13,16)           119.8137         estimate D2E/DX2                !
 ! A26   A(11,13,17)           119.8118         estimate D2E/DX2                !
 ! A27   A(16,13,17)           120.3726         estimate D2E/DX2                !
 ! A28   A(12,14,18)           120.6576         estimate D2E/DX2                !
 ! A29   A(12,14,19)           119.7472         estimate D2E/DX2                !
 ! A30   A(18,14,19)           119.5906         estimate D2E/DX2                !
 ! A31   A(13,16,18)           120.6119         estimate D2E/DX2                !
 ! A32   A(13,16,20)           119.6806         estimate D2E/DX2                !
 ! A33   A(18,16,20)           119.707          estimate D2E/DX2                !
 ! A34   A(14,18,16)           118.7277         estimate D2E/DX2                !
 ! A35   A(14,18,22)           120.4702         estimate D2E/DX2                !
 ! A36   A(16,18,22)           120.798          estimate D2E/DX2                !
 ! A37   A(8,21,23)            120.6251         estimate D2E/DX2                !
 ! A38   A(8,21,34)            120.557          estimate D2E/DX2                !
 ! A39   A(23,21,34)           118.8134         estimate D2E/DX2                !
 ! A40   A(18,22,45)           120.3981         estimate D2E/DX2                !
 ! A41   A(18,22,56)           120.5469         estimate D2E/DX2                !
 ! A42   A(45,22,56)           118.9602         estimate D2E/DX2                !
 ! A43   A(21,23,24)           120.1367         estimate D2E/DX2                !
 ! A44   A(21,23,25)           120.6395         estimate D2E/DX2                !
 ! A45   A(24,23,25)           119.2191         estimate D2E/DX2                !
 ! A46   A(23,24,26)           120.2101         estimate D2E/DX2                !
 ! A47   A(23,24,27)           119.4378         estimate D2E/DX2                !
 ! A48   A(26,24,27)           120.3519         estimate D2E/DX2                !
 ! A49   A(23,25,28)           120.2128         estimate D2E/DX2                !
 ! A50   A(23,25,29)           119.5461         estimate D2E/DX2                !
 ! A51   A(28,25,29)           120.241          estimate D2E/DX2                !
 ! A52   A(24,26,30)           120.5038         estimate D2E/DX2                !
 ! A53   A(24,26,31)           119.4031         estimate D2E/DX2                !
 ! A54   A(30,26,31)           120.0886         estimate D2E/DX2                !
 ! A55   A(25,28,30)           120.4946         estimate D2E/DX2                !
 ! A56   A(25,28,32)           119.3959         estimate D2E/DX2                !
 ! A57   A(30,28,32)           120.1042         estimate D2E/DX2                !
 ! A58   A(26,30,28)           119.3517         estimate D2E/DX2                !
 ! A59   A(26,30,33)           120.3267         estimate D2E/DX2                !
 ! A60   A(28,30,33)           120.3216         estimate D2E/DX2                !
 ! A61   A(21,34,35)           120.242          estimate D2E/DX2                !
 ! A62   A(21,34,36)           120.4804         estimate D2E/DX2                !
 ! A63   A(35,34,36)           119.2725         estimate D2E/DX2                !
 ! A64   A(34,35,37)           120.1912         estimate D2E/DX2                !
 ! A65   A(34,35,38)           119.4839         estimate D2E/DX2                !
 ! A66   A(37,35,38)           120.3246         estimate D2E/DX2                !
 ! A67   A(34,36,39)           120.1864         estimate D2E/DX2                !
 ! A68   A(34,36,40)           119.5265         estimate D2E/DX2                !
 ! A69   A(39,36,40)           120.2871         estimate D2E/DX2                !
 ! A70   A(35,37,41)           120.4892         estimate D2E/DX2                !
 ! A71   A(35,37,42)           119.3884         estimate D2E/DX2                !
 ! A72   A(41,37,42)           120.1181         estimate D2E/DX2                !
 ! A73   A(36,39,41)           120.4748         estimate D2E/DX2                !
 ! A74   A(36,39,43)           119.3911         estimate D2E/DX2                !
 ! A75   A(41,39,43)           120.1286         estimate D2E/DX2                !
 ! A76   A(37,41,39)           119.3775         estimate D2E/DX2                !
 ! A77   A(37,41,44)           120.3242         estimate D2E/DX2                !
 ! A78   A(39,41,44)           120.2981         estimate D2E/DX2                !
 ! A79   A(22,45,46)           120.4804         estimate D2E/DX2                !
 ! A80   A(22,45,47)           120.2657         estimate D2E/DX2                !
 ! A81   A(46,45,47)           119.2502         estimate D2E/DX2                !
 ! A82   A(45,46,48)           120.1974         estimate D2E/DX2                !
 ! A83   A(45,46,49)           119.5393         estimate D2E/DX2                !
 ! A84   A(48,46,49)           120.2633         estimate D2E/DX2                !
 ! A85   A(45,47,50)           120.2108         estimate D2E/DX2                !
 ! A86   A(45,47,51)           119.4292         estimate D2E/DX2                !
 ! A87   A(50,47,51)           120.3593         estimate D2E/DX2                !
 ! A88   A(46,48,52)           120.4769         estimate D2E/DX2                !
 ! A89   A(46,48,53)           119.3695         estimate D2E/DX2                !
 ! A90   A(52,48,53)           120.1477         estimate D2E/DX2                !
 ! A91   A(47,50,52)           120.472          estimate D2E/DX2                !
 ! A92   A(47,50,54)           119.4092         estimate D2E/DX2                !
 ! A93   A(52,50,54)           120.1151         estimate D2E/DX2                !
 ! A94   A(48,52,50)           119.3853         estimate D2E/DX2                !
 ! A95   A(48,52,55)           120.3117         estimate D2E/DX2                !
 ! A96   A(50,52,55)           120.303          estimate D2E/DX2                !
 ! A97   A(22,56,57)           120.7547         estimate D2E/DX2                !
 ! A98   A(22,56,58)           120.1263         estimate D2E/DX2                !
 ! A99   A(57,56,58)           119.1153         estimate D2E/DX2                !
 ! A100  A(56,57,59)           120.2673         estimate D2E/DX2                !
 ! A101  A(56,57,60)           119.5349         estimate D2E/DX2                !
 ! A102  A(59,57,60)           120.1978         estimate D2E/DX2                !
 ! A103  A(56,58,61)           120.268          estimate D2E/DX2                !
 ! A104  A(56,58,62)           119.4443         estimate D2E/DX2                !
 ! A105  A(61,58,62)           120.2874         estimate D2E/DX2                !
 ! A106  A(57,59,63)           120.5089         estimate D2E/DX2                !
 ! A107  A(57,59,64)           119.372          estimate D2E/DX2                !
 ! A108  A(63,59,64)           120.1134         estimate D2E/DX2                !
 ! A109  A(58,61,63)           120.5182         estimate D2E/DX2                !
 ! A110  A(58,61,65)           119.3491         estimate D2E/DX2                !
 ! A111  A(63,61,65)           120.1285         estimate D2E/DX2                !
 ! A112  A(59,63,61)           119.3144         estimate D2E/DX2                !
 ! A113  A(59,63,66)           120.3258         estimate D2E/DX2                !
 ! A114  A(61,63,66)           120.3597         estimate D2E/DX2                !
 ! A115  A(1,67,11)            105.5809         estimate D2E/DX2                !
 ! A116  A(1,67,68)            107.213          estimate D2E/DX2                !
 ! A117  A(1,67,69)            107.1637         estimate D2E/DX2                !
 ! A118  A(11,67,68)           107.1782         estimate D2E/DX2                !
 ! A119  A(11,67,69)           107.1614         estimate D2E/DX2                !
 ! A120  A(68,67,69)           121.5272         estimate D2E/DX2                !
 ! D1    D(3,1,2,4)              0.219          estimate D2E/DX2                !
 ! D2    D(3,1,2,5)           -177.4415         estimate D2E/DX2                !
 ! D3    D(67,1,2,4)           179.8142         estimate D2E/DX2                !
 ! D4    D(67,1,2,5)             2.1538         estimate D2E/DX2                !
 ! D5    D(2,1,3,6)             -0.7563         estimate D2E/DX2                !
 ! D6    D(2,1,3,7)            178.7062         estimate D2E/DX2                !
 ! D7    D(67,1,3,6)           179.6487         estimate D2E/DX2                !
 ! D8    D(67,1,3,7)            -0.8889         estimate D2E/DX2                !
 ! D9    D(2,1,67,11)           90.1809         estimate D2E/DX2                !
 ! D10   D(2,1,67,68)         -155.779          estimate D2E/DX2                !
 ! D11   D(2,1,67,69)          -23.8183         estimate D2E/DX2                !
 ! D12   D(3,1,67,11)          -90.2217         estimate D2E/DX2                !
 ! D13   D(3,1,67,68)           23.8184         estimate D2E/DX2                !
 ! D14   D(3,1,67,69)          155.7792         estimate D2E/DX2                !
 ! D15   D(1,2,4,8)              0.504          estimate D2E/DX2                !
 ! D16   D(1,2,4,9)           -178.609          estimate D2E/DX2                !
 ! D17   D(5,2,4,8)            178.1494         estimate D2E/DX2                !
 ! D18   D(5,2,4,9)             -0.9636         estimate D2E/DX2                !
 ! D19   D(1,3,6,8)              0.574          estimate D2E/DX2                !
 ! D20   D(1,3,6,10)          -179.6728         estimate D2E/DX2                !
 ! D21   D(7,3,6,8)           -178.8862         estimate D2E/DX2                !
 ! D22   D(7,3,6,10)             0.867          estimate D2E/DX2                !
 ! D23   D(2,4,8,6)             -0.6778         estimate D2E/DX2                !
 ! D24   D(2,4,8,21)           179.8378         estimate D2E/DX2                !
 ! D25   D(9,4,8,6)            178.436          estimate D2E/DX2                !
 ! D26   D(9,4,8,21)            -1.0484         estimate D2E/DX2                !
 ! D27   D(3,6,8,4)              0.136          estimate D2E/DX2                !
 ! D28   D(3,6,8,21)           179.6198         estimate D2E/DX2                !
 ! D29   D(10,6,8,4)          -179.6171         estimate D2E/DX2                !
 ! D30   D(10,6,8,21)           -0.1333         estimate D2E/DX2                !
 ! D31   D(4,8,21,23)          -34.1366         estimate D2E/DX2                !
 ! D32   D(4,8,21,34)          146.6407         estimate D2E/DX2                !
 ! D33   D(6,8,21,23)          146.3895         estimate D2E/DX2                !
 ! D34   D(6,8,21,34)          -32.8333         estimate D2E/DX2                !
 ! D35   D(13,11,12,14)          0.1548         estimate D2E/DX2                !
 ! D36   D(13,11,12,15)       -177.3892         estimate D2E/DX2                !
 ! D37   D(67,11,12,14)        179.7327         estimate D2E/DX2                !
 ! D38   D(67,11,12,15)          2.1887         estimate D2E/DX2                !
 ! D39   D(12,11,13,16)         -0.6647         estimate D2E/DX2                !
 ! D40   D(12,11,13,17)        178.8347         estimate D2E/DX2                !
 ! D41   D(67,11,13,16)        179.7572         estimate D2E/DX2                !
 ! D42   D(67,11,13,17)         -0.7435         estimate D2E/DX2                !
 ! D43   D(12,11,67,1)          89.2439         estimate D2E/DX2                !
 ! D44   D(12,11,67,68)        -24.8202         estimate D2E/DX2                !
 ! D45   D(12,11,67,69)       -156.7553         estimate D2E/DX2                !
 ! D46   D(13,11,67,1)         -91.1754         estimate D2E/DX2                !
 ! D47   D(13,11,67,68)        154.7604         estimate D2E/DX2                !
 ! D48   D(13,11,67,69)         22.8253         estimate D2E/DX2                !
 ! D49   D(11,12,14,18)          0.5022         estimate D2E/DX2                !
 ! D50   D(11,12,14,19)       -178.7135         estimate D2E/DX2                !
 ! D51   D(15,12,14,18)        178.0331         estimate D2E/DX2                !
 ! D52   D(15,12,14,19)         -1.1827         estimate D2E/DX2                !
 ! D53   D(11,13,16,18)          0.5206         estimate D2E/DX2                !
 ! D54   D(11,13,16,20)       -179.7382         estimate D2E/DX2                !
 ! D55   D(17,13,16,18)       -178.9759         estimate D2E/DX2                !
 ! D56   D(17,13,16,20)          0.7653         estimate D2E/DX2                !
 ! D57   D(12,14,18,16)         -0.6386         estimate D2E/DX2                !
 ! D58   D(12,14,18,22)       -179.905          estimate D2E/DX2                !
 ! D59   D(19,14,18,16)        178.5784         estimate D2E/DX2                !
 ! D60   D(19,14,18,22)         -0.688          estimate D2E/DX2                !
 ! D61   D(13,16,18,14)          0.1243         estimate D2E/DX2                !
 ! D62   D(13,16,18,22)        179.3882         estimate D2E/DX2                !
 ! D63   D(20,16,18,14)       -179.6168         estimate D2E/DX2                !
 ! D64   D(20,16,18,22)         -0.3528         estimate D2E/DX2                !
 ! D65   D(14,18,22,45)        147.6121         estimate D2E/DX2                !
 ! D66   D(14,18,22,56)        -35.9651         estimate D2E/DX2                !
 ! D67   D(16,18,22,45)        -31.639          estimate D2E/DX2                !
 ! D68   D(16,18,22,56)        144.7837         estimate D2E/DX2                !
 ! D69   D(8,21,23,24)         134.9326         estimate D2E/DX2                !
 ! D70   D(8,21,23,25)         -45.8605         estimate D2E/DX2                !
 ! D71   D(34,21,23,24)        -45.8313         estimate D2E/DX2                !
 ! D72   D(34,21,23,25)        133.3756         estimate D2E/DX2                !
 ! D73   D(8,21,34,35)         133.1705         estimate D2E/DX2                !
 ! D74   D(8,21,34,36)         -47.6552         estimate D2E/DX2                !
 ! D75   D(23,21,34,35)        -46.0662         estimate D2E/DX2                !
 ! D76   D(23,21,34,36)        133.1082         estimate D2E/DX2                !
 ! D77   D(18,22,45,46)        -49.0274         estimate D2E/DX2                !
 ! D78   D(18,22,45,47)        131.6727         estimate D2E/DX2                !
 ! D79   D(56,22,45,46)        134.4936         estimate D2E/DX2                !
 ! D80   D(56,22,45,47)        -44.8063         estimate D2E/DX2                !
 ! D81   D(18,22,56,57)        -43.8458         estimate D2E/DX2                !
 ! D82   D(18,22,56,58)        136.8682         estimate D2E/DX2                !
 ! D83   D(45,22,56,57)        132.6278         estimate D2E/DX2                !
 ! D84   D(45,22,56,58)        -46.6581         estimate D2E/DX2                !
 ! D85   D(21,23,24,26)        179.0602         estimate D2E/DX2                !
 ! D86   D(21,23,24,27)         -0.7944         estimate D2E/DX2                !
 ! D87   D(25,23,24,26)         -0.1579         estimate D2E/DX2                !
 ! D88   D(25,23,24,27)        179.9874         estimate D2E/DX2                !
 ! D89   D(21,23,25,28)       -179.8597         estimate D2E/DX2                !
 ! D90   D(21,23,25,29)          0.1714         estimate D2E/DX2                !
 ! D91   D(24,23,25,28)         -0.6456         estimate D2E/DX2                !
 ! D92   D(24,23,25,29)        179.3856         estimate D2E/DX2                !
 ! D93   D(23,24,26,30)          0.733          estimate D2E/DX2                !
 ! D94   D(23,24,26,31)        179.9699         estimate D2E/DX2                !
 ! D95   D(27,24,26,30)       -179.4137         estimate D2E/DX2                !
 ! D96   D(27,24,26,31)         -0.1768         estimate D2E/DX2                !
 ! D97   D(23,25,28,30)          0.8848         estimate D2E/DX2                !
 ! D98   D(23,25,28,32)       -179.9513         estimate D2E/DX2                !
 ! D99   D(29,25,28,30)       -179.1466         estimate D2E/DX2                !
 ! D100  D(29,25,28,32)          0.0174         estimate D2E/DX2                !
 ! D101  D(24,26,30,28)         -0.4983         estimate D2E/DX2                !
 ! D102  D(24,26,30,33)        179.5975         estimate D2E/DX2                !
 ! D103  D(31,26,30,28)       -179.73           estimate D2E/DX2                !
 ! D104  D(31,26,30,33)          0.3658         estimate D2E/DX2                !
 ! D105  D(25,28,30,26)         -0.3105         estimate D2E/DX2                !
 ! D106  D(25,28,30,33)        179.5938         estimate D2E/DX2                !
 ! D107  D(32,28,30,26)       -179.4685         estimate D2E/DX2                !
 ! D108  D(32,28,30,33)          0.4357         estimate D2E/DX2                !
 ! D109  D(21,34,35,37)        179.0067         estimate D2E/DX2                !
 ! D110  D(21,34,35,38)         -0.7868         estimate D2E/DX2                !
 ! D111  D(36,34,35,37)         -0.1775         estimate D2E/DX2                !
 ! D112  D(36,34,35,38)       -179.9711         estimate D2E/DX2                !
 ! D113  D(21,34,36,39)       -179.8381         estimate D2E/DX2                !
 ! D114  D(21,34,36,40)          0.1627         estimate D2E/DX2                !
 ! D115  D(35,34,36,39)         -0.6558         estimate D2E/DX2                !
 ! D116  D(35,34,36,40)        179.345          estimate D2E/DX2                !
 ! D117  D(34,35,37,41)          0.767          estimate D2E/DX2                !
 ! D118  D(34,35,37,42)       -179.9814         estimate D2E/DX2                !
 ! D119  D(38,35,37,41)       -179.4411         estimate D2E/DX2                !
 ! D120  D(38,35,37,42)         -0.1895         estimate D2E/DX2                !
 ! D121  D(34,36,39,41)          0.9104         estimate D2E/DX2                !
 ! D122  D(34,36,39,43)       -179.9374         estimate D2E/DX2                !
 ! D123  D(40,36,39,41)       -179.0904         estimate D2E/DX2                !
 ! D124  D(40,36,39,43)          0.0617         estimate D2E/DX2                !
 ! D125  D(35,37,41,39)         -0.5168         estimate D2E/DX2                !
 ! D126  D(35,37,41,44)        179.6068         estimate D2E/DX2                !
 ! D127  D(42,37,41,39)       -179.7629         estimate D2E/DX2                !
 ! D128  D(42,37,41,44)          0.3606         estimate D2E/DX2                !
 ! D129  D(36,39,41,37)         -0.322          estimate D2E/DX2                !
 ! D130  D(36,39,41,44)        179.5545         estimate D2E/DX2                !
 ! D131  D(43,39,41,37)       -179.4679         estimate D2E/DX2                !
 ! D132  D(43,39,41,44)          0.4085         estimate D2E/DX2                !
 ! D133  D(22,45,46,48)       -179.8777         estimate D2E/DX2                !
 ! D134  D(22,45,46,49)          0.1484         estimate D2E/DX2                !
 ! D135  D(47,45,46,48)         -0.5708         estimate D2E/DX2                !
 ! D136  D(47,45,46,49)        179.4553         estimate D2E/DX2                !
 ! D137  D(22,45,47,50)        179.0814         estimate D2E/DX2                !
 ! D138  D(22,45,47,51)         -0.617          estimate D2E/DX2                !
 ! D139  D(46,45,47,50)         -0.2271         estimate D2E/DX2                !
 ! D140  D(46,45,47,51)       -179.9254         estimate D2E/DX2                !
 ! D141  D(45,46,48,52)          0.8763         estimate D2E/DX2                !
 ! D142  D(45,46,48,53)        179.9937         estimate D2E/DX2                !
 ! D143  D(49,46,48,52)       -179.1499         estimate D2E/DX2                !
 ! D144  D(49,46,48,53)         -0.0326         estimate D2E/DX2                !
 ! D145  D(45,47,50,52)          0.7295         estimate D2E/DX2                !
 ! D146  D(45,47,50,54)       -179.9708         estimate D2E/DX2                !
 ! D147  D(51,47,50,52)       -179.575          estimate D2E/DX2                !
 ! D148  D(51,47,50,54)         -0.2753         estimate D2E/DX2                !
 ! D149  D(46,48,52,50)         -0.3748         estimate D2E/DX2                !
 ! D150  D(46,48,52,55)        179.5869         estimate D2E/DX2                !
 ! D151  D(53,48,52,50)       -179.4853         estimate D2E/DX2                !
 ! D152  D(53,48,52,55)          0.4764         estimate D2E/DX2                !
 ! D153  D(47,50,52,48)         -0.428          estimate D2E/DX2                !
 ! D154  D(47,50,52,55)        179.6103         estimate D2E/DX2                !
 ! D155  D(54,50,52,48)       -179.7228         estimate D2E/DX2                !
 ! D156  D(54,50,52,55)          0.3156         estimate D2E/DX2                !
 ! D157  D(22,56,57,59)       -179.9154         estimate D2E/DX2                !
 ! D158  D(22,56,57,60)          0.1368         estimate D2E/DX2                !
 ! D159  D(58,56,57,59)         -0.6223         estimate D2E/DX2                !
 ! D160  D(58,56,57,60)        179.4298         estimate D2E/DX2                !
 ! D161  D(22,56,58,61)        179.1081         estimate D2E/DX2                !
 ! D162  D(22,56,58,62)         -0.6846         estimate D2E/DX2                !
 ! D163  D(57,56,58,61)         -0.1895         estimate D2E/DX2                !
 ! D164  D(57,56,58,62)       -179.9822         estimate D2E/DX2                !
 ! D165  D(56,57,59,63)          0.8848         estimate D2E/DX2                !
 ! D166  D(56,57,59,64)       -179.9782         estimate D2E/DX2                !
 ! D167  D(60,57,59,63)       -179.1677         estimate D2E/DX2                !
 ! D168  D(60,57,59,64)         -0.0307         estimate D2E/DX2                !
 ! D169  D(56,58,61,63)          0.75           estimate D2E/DX2                !
 ! D170  D(56,58,61,65)        179.9973         estimate D2E/DX2                !
 ! D171  D(62,58,61,63)       -179.4591         estimate D2E/DX2                !
 ! D172  D(62,58,61,65)         -0.2117         estimate D2E/DX2                !
 ! D173  D(57,59,63,61)         -0.3248         estimate D2E/DX2                !
 ! D174  D(57,59,63,66)        179.608          estimate D2E/DX2                !
 ! D175  D(64,59,63,61)       -179.4554         estimate D2E/DX2                !
 ! D176  D(64,59,63,66)          0.4774         estimate D2E/DX2                !
 ! D177  D(58,61,63,59)         -0.4919         estimate D2E/DX2                !
 ! D178  D(58,61,63,66)        179.5753         estimate D2E/DX2                !
 ! D179  D(65,61,63,59)       -179.7334         estimate D2E/DX2                !
 ! D180  D(65,61,63,66)          0.3338         estimate D2E/DX2                !
 --------------------------------------------------------------------------------
 Trust Radius=3.00D-01 FncErr=1.00D-07 GrdErr=1.00D-06
 Number of steps in this run=    384 maximum allowed number of steps=    414.
 GradGradGradGradGradGradGradGradGradGradGradGradGradGradGradGradGradGrad

 Symmetry turned off by external request.
 Stoichiometry    C36H28N2O2S
 Framework group  C1[X(C36H28N2O2S)]
 Deg. of freedom   201
 Full point group                 C1      NOp   1
                          Input orientation:                          
 ---------------------------------------------------------------------
 Center     Atomic      Atomic             Coordinates (Angstroms)
 Number     Number       Type             X           Y           Z
 ---------------------------------------------------------------------
      1          6           0       -0.916931    1.588995   -0.339383
      2          6           0       -0.776708    2.187050   -1.595167
      3          6           0       -1.436779    2.315513    0.735060
      4          6           0       -1.152530    3.513896   -1.774771
      5          1           0       -0.411101    1.602026   -2.432356
      6          6           0       -1.802383    3.646270    0.558426
      7          1           0       -1.561720    1.837277    1.700787
      8          6           0       -1.665004    4.268056   -0.699023
      9          1           0       -1.064320    3.969452   -2.754620
     10          1           0       -2.200447    4.208786    1.395406
     11          6           0        1.294246   -0.082407    0.377434
     12          6           0        1.633545    0.014712    1.730147
     13          6           0        2.291481   -0.153844   -0.598508
     14          6           0        2.972323    0.043595    2.106004
     15          1           0        0.852450    0.026841    2.482831
     16          6           0        3.630920   -0.114230   -0.223223
     17          1           0        2.017290   -0.248077   -1.643888
     18          6           0        3.992974   -0.013526    1.135098
     19          1           0        3.235104    0.097825    3.156461
     20          1           0        4.402946   -0.165529   -0.982650
     21          7           0       -2.042464    5.614226   -0.881744
     22          7           0        5.350233    0.014044    1.521051
     23          6           0       -1.330237    6.451913   -1.791550
     24          6           0       -2.030556    7.283999   -2.679280
     25          6           0        0.073580    6.467938   -1.800181
     26          6           0       -1.335682    8.118136   -3.556006
     27          1           0       -3.115549    7.274303   -2.675767
     28          6           0        0.760955    7.292653   -2.691614
     29          1           0        0.620262    5.834267   -1.109287
     30          6           0        0.062096    8.124248   -3.571719
     31          1           0       -1.890747    8.756226   -4.237661
     32          1           0        1.847216    7.293969   -2.687443
     33          1           0        0.599795    8.769633   -4.259581
     34          6           0       -3.133887    6.167892   -0.147338
     35          6           0       -3.001728    7.414808    0.482495
     36          6           0       -4.355630    5.481112   -0.060992
     37          6           0       -4.076411    7.964745    1.183011
     38          1           0       -2.059153    7.948795    0.417562
     39          6           0       -5.419638    6.029630    0.655772
     40          1           0       -4.465807    4.521368   -0.555534
     41          6           0       -5.288169    7.274759    1.278658
     42          1           0       -3.959815    8.931014    1.665425
     43          1           0       -6.358607    5.486810    0.714992
     44          1           0       -6.120343    7.702182    1.829617
     45          6           0        6.332119   -0.691215    0.760879
     46          6           0        6.125196   -2.032090    0.399747
     47          6           0        7.522790   -0.054064    0.378901
     48          6           0        7.089670   -2.716303   -0.340915
     49          1           0        5.210274   -2.531931    0.700233
     50          6           0        8.490017   -0.750218   -0.347595
     51          1           0        7.686303    0.982101    0.657580
     52          6           0        8.278096   -2.081949   -0.715349
     53          1           0        6.915750   -3.753407   -0.612897
     54          1           0        9.407057   -0.244452   -0.636068
     55          1           0        9.029662   -2.618960   -1.285934
     56          6           0        5.772815    0.806383    2.629158
     57          6           0        5.298504    2.117790    2.796823
     58          6           0        6.684407    0.285263    3.561138
     59          6           0        5.719970    2.884457    3.883587
     60          1           0        4.600762    2.530747    2.075240
     61          6           0        7.114108    1.064426    4.636094
     62          1           0        7.054522   -0.727182    3.436594
     63          6           0        6.631895    2.365188    4.807473
     64          1           0        5.343620    3.896913    3.999313
     65          1           0        7.819669    0.646238    5.348306
     66          1           0        6.962717    2.966688    5.648587
     67         16           0       -0.435749   -0.127099   -0.109291
     68          8           0       -1.199436   -0.644072    1.042790
     69          8           0       -0.499260   -0.778328   -1.432099
 ---------------------------------------------------------------------
 Rotational constants (GHZ):      0.1269357      0.0342830      0.0327832
 Standard basis: 6-31+G(d,p) (6D, 7F)
   923 basis functions,  1532 primitive gaussians,   923 cartesian basis functions
   145 alpha electrons      145 beta electrons
       nuclear repulsion energy      4366.2364499834 Hartrees.
 NAtoms=   69 NActive=   69 NUniq=   69 SFac= 1.00D+00 NAtFMM=   60 NAOKFM=T Big=T
 Integral buffers will be    131072 words long.
 Raffenetti 2 integral format.
 Two-electron integral symmetry is turned off.
 One-electron integrals computed using PRISM.
 NBasis=   923 RedAO= T EigKep=  1.14D-06  NBF=   923
 NBsUse=   919 1.00D-06 EigRej=  7.15D-07 NBFU=   919
 ExpMin= 4.05D-02 ExpMax= 2.19D+04 ExpMxC= 3.30D+03 IAcc=2 IRadAn=         4 AccDes= 0.00D+00
 Harris functional with IExCor=  402 and IRadAn=       4 diagonalized for initial guess.
 HarFok:  IExCor=  402 AccDes= 0.00D+00 IRadAn=         4 IDoV= 1 UseB2=F ITyADJ=14
 ICtDFT=  3500011 ScaDFX=  1.000000  1.000000  1.000000  1.000000
 FoFCou: FMM=F IPFlag=           0 FMFlag=      100000 FMFlg1=        2001
         NFxFlg=           0 DoJE=T BraDBF=F KetDBF=T FulRan=T
         wScrn=  0.000000 ICntrl=     500 IOpCl=  0 I1Cent=   200000004 NGrid=           0
         NMat0=    1 NMatS0=      1 NMatT0=    0 NMatD0=    1 NMtDS0=    0 NMtDT0=    0
 Symmetry not used in FoFCou.
 Requested convergence on RMS density matrix=1.00D-08 within 128 cycles.
 Requested convergence on MAX density matrix=1.00D-06.
 Requested convergence on             energy=1.00D-06.
 No special actions if energy rises.
 Restarting incremental Fock formation.
 Restarting incremental Fock formation.
 SCF Done:  E(RB3LYP) =  -2046.87154337     A.U. after   43 cycles
            NFock= 43  Conv=0.91D-08     -V/T= 2.0086

 **********************************************************************

            Population analysis using the SCF density.

 **********************************************************************

 Alpha  occ. eigenvalues --  -89.09487 -19.13934 -19.13932 -14.38493 -14.38490
 Alpha  occ. eigenvalues --  -10.25552 -10.25542 -10.24738 -10.24733 -10.24663
 Alpha  occ. eigenvalues --  -10.24659 -10.22366 -10.22354 -10.21543 -10.21540
 Alpha  occ. eigenvalues --  -10.21537 -10.21524 -10.20828 -10.20805 -10.20786
 Alpha  occ. eigenvalues --  -10.20769 -10.20762 -10.20760 -10.20756 -10.20754
 Alpha  occ. eigenvalues --  -10.20745 -10.20741 -10.20721 -10.20715 -10.20589
 Alpha  occ. eigenvalues --  -10.20564 -10.20520 -10.20500 -10.20497 -10.20492
 Alpha  occ. eigenvalues --  -10.20491 -10.20486 -10.20428 -10.20399 -10.20376
 Alpha  occ. eigenvalues --  -10.20372  -8.12183  -6.08642  -6.08578  -6.08503
 Alpha  occ. eigenvalues --   -1.09404  -0.99293  -0.98396  -0.98367  -0.87868
 Alpha  occ. eigenvalues --   -0.87646  -0.87091  -0.87077  -0.85447  -0.85312
 Alpha  occ. eigenvalues --   -0.79098  -0.77865  -0.77537  -0.77519  -0.76381
 Alpha  occ. eigenvalues --   -0.76342  -0.76152  -0.76008  -0.75975  -0.75964
 Alpha  occ. eigenvalues --   -0.73571  -0.72529  -0.68154  -0.64700  -0.64551
 Alpha  occ. eigenvalues --   -0.64453  -0.62584  -0.62412  -0.62298  -0.61709
 Alpha  occ. eigenvalues --   -0.61683  -0.61630  -0.60366  -0.58739  -0.58027
 Alpha  occ. eigenvalues --   -0.55394  -0.55030  -0.54837  -0.54796  -0.53394
 Alpha  occ. eigenvalues --   -0.51149  -0.50553  -0.49888  -0.49732  -0.48845
 Alpha  occ. eigenvalues --   -0.48492  -0.48209  -0.47050  -0.46761  -0.46569
 Alpha  occ. eigenvalues --   -0.46469  -0.45905  -0.45771  -0.45239  -0.45222
 Alpha  occ. eigenvalues --   -0.44759  -0.44462  -0.44194  -0.44004  -0.43646
 Alpha  occ. eigenvalues --   -0.43617  -0.43481  -0.43468  -0.43341  -0.41439
 Alpha  occ. eigenvalues --   -0.41343  -0.39651  -0.39252  -0.38522  -0.38314
 Alpha  occ. eigenvalues --   -0.38296  -0.38287  -0.37793  -0.37782  -0.37362
 Alpha  occ. eigenvalues --   -0.37330  -0.36780  -0.36683  -0.35860  -0.35837
 Alpha  occ. eigenvalues --   -0.35808  -0.35789  -0.33148  -0.32326  -0.32280
 Alpha  occ. eigenvalues --   -0.31351  -0.29870  -0.28860  -0.28456  -0.27807
 Alpha  occ. eigenvalues --   -0.27623  -0.27597  -0.27547  -0.27210  -0.26641
 Alpha  occ. eigenvalues --   -0.26508  -0.26420  -0.26259  -0.20938  -0.20218
 Alpha virt. eigenvalues --   -0.05752  -0.04352  -0.03916  -0.03530  -0.03464
 Alpha virt. eigenvalues --   -0.03454  -0.02176  -0.01738  -0.01719  -0.01361
 Alpha virt. eigenvalues --   -0.00947  -0.00330  -0.00267   0.00382   0.00408
 Alpha virt. eigenvalues --    0.00593   0.00768   0.01392   0.01927   0.02125
 Alpha virt. eigenvalues --    0.02153   0.02267   0.02517   0.02669   0.03233
 Alpha virt. eigenvalues --    0.03310   0.03482   0.03807   0.03947   0.04409
 Alpha virt. eigenvalues --    0.04431   0.04778   0.05173   0.05255   0.05290
 Alpha virt. eigenvalues --    0.05613   0.05758   0.06246   0.06856   0.06951
 Alpha virt. eigenvalues --    0.07043   0.07448   0.07542   0.07894   0.08030
 Alpha virt. eigenvalues --    0.08070   0.08281   0.08592   0.08841   0.09058
 Alpha virt. eigenvalues --    0.09367   0.09423   0.09531   0.09546   0.09695
 Alpha virt. eigenvalues --    0.09852   0.09950   0.10692   0.11165   0.11173
 Alpha virt. eigenvalues --    0.11228   0.11483   0.11579   0.11704   0.11894
 Alpha virt. eigenvalues --    0.12277   0.12450   0.12696   0.12742   0.13055
 Alpha virt. eigenvalues --    0.13190   0.13233   0.13349   0.13458   0.13753
 Alpha virt. eigenvalues --    0.13769   0.14047   0.14206   0.14397   0.14411
 Alpha virt. eigenvalues --    0.14476   0.14548   0.14748   0.14774   0.15072
 Alpha virt. eigenvalues --    0.15096   0.15479   0.15605   0.15625   0.15908
 Alpha virt. eigenvalues --    0.16266   0.16453   0.16488   0.16658   0.17169
 Alpha virt. eigenvalues --    0.17186   0.17611   0.17808   0.18140   0.18337
 Alpha virt. eigenvalues --    0.18545   0.18613   0.18711   0.18838   0.18968
 Alpha virt. eigenvalues --    0.19110   0.19240   0.19538   0.19770   0.19966
 Alpha virt. eigenvalues --    0.20078   0.20166   0.20235   0.20390   0.20584
 Alpha virt. eigenvalues --    0.20708   0.20938   0.21159   0.21238   0.21495
 Alpha virt. eigenvalues --    0.21743   0.21996   0.22038   0.22180   0.22509
 Alpha virt. eigenvalues --    0.22531   0.22730   0.22832   0.22848   0.23022
 Alpha virt. eigenvalues --    0.23132   0.23277   0.23292   0.23669   0.23906
 Alpha virt. eigenvalues --    0.23964   0.24113   0.24321   0.24330   0.24489
 Alpha virt. eigenvalues --    0.24739   0.24805   0.25071   0.25129   0.25184
 Alpha virt. eigenvalues --    0.25583   0.25770   0.25871   0.25896   0.26206
 Alpha virt. eigenvalues --    0.26234   0.26464   0.26687   0.26809   0.26980
 Alpha virt. eigenvalues --    0.27152   0.27234   0.27393   0.27677   0.27767
 Alpha virt. eigenvalues --    0.27923   0.28110   0.28238   0.28324   0.28547
 Alpha virt. eigenvalues --    0.28672   0.28742   0.29153   0.29168   0.29319
 Alpha virt. eigenvalues --    0.29517   0.29741   0.30034   0.30178   0.30421
 Alpha virt. eigenvalues --    0.30578   0.30712   0.30801   0.31082   0.31149
 Alpha virt. eigenvalues --    0.31264   0.31653   0.31994   0.32256   0.32298
 Alpha virt. eigenvalues --    0.32336   0.32495   0.32676   0.32699   0.33124
 Alpha virt. eigenvalues --    0.33155   0.33514   0.33588   0.33679   0.33855
 Alpha virt. eigenvalues --    0.34376   0.34515   0.35095   0.35273   0.36082
 Alpha virt. eigenvalues --    0.36147   0.36356   0.36533   0.36556   0.36630
 Alpha virt. eigenvalues --    0.37398   0.37526   0.37797   0.37955   0.38219
 Alpha virt. eigenvalues --    0.38795   0.38978   0.39061   0.39209   0.39528
 Alpha virt. eigenvalues --    0.39700   0.39973   0.40280   0.40869   0.41057
 Alpha virt. eigenvalues --    0.41301   0.41809   0.42527   0.43374   0.43480
 Alpha virt. eigenvalues --    0.44177   0.44891   0.45172   0.45584   0.45890
 Alpha virt. eigenvalues --    0.46100   0.46288   0.46730   0.47513   0.48167
 Alpha virt. eigenvalues --    0.48321   0.49494   0.49643   0.50359   0.50476
 Alpha virt. eigenvalues --    0.56003   0.56431   0.57060   0.57904   0.57923
 Alpha virt. eigenvalues --    0.58345   0.59230   0.59352   0.60951   0.61093
 Alpha virt. eigenvalues --    0.61130   0.61611   0.62055   0.62846   0.66107
 Alpha virt. eigenvalues --    0.67184   0.67580   0.67768   0.68245   0.68357
 Alpha virt. eigenvalues --    0.68373   0.68816   0.68995   0.69198   0.69488
 Alpha virt. eigenvalues --    0.69504   0.70533   0.70606   0.71733   0.71777
 Alpha virt. eigenvalues --    0.71815   0.71866   0.72008   0.72528   0.72692
 Alpha virt. eigenvalues --    0.73015   0.73521   0.73796   0.73925   0.74341
 Alpha virt. eigenvalues --    0.74605   0.74975   0.75064   0.75324   0.75405
 Alpha virt. eigenvalues --    0.75582   0.76181   0.76295   0.76927   0.77626
 Alpha virt. eigenvalues --    0.77751   0.78116   0.78162   0.78562   0.79410
 Alpha virt. eigenvalues --    0.79737   0.79845   0.80062   0.80401   0.81144
 Alpha virt. eigenvalues --    0.81263   0.81436   0.81697   0.81781   0.82160
 Alpha virt. eigenvalues --    0.82396   0.83050   0.83249   0.83687   0.83967
 Alpha virt. eigenvalues --    0.84143   0.85676   0.85780   0.86242   0.87285
 Alpha virt. eigenvalues --    0.87626   0.87790   0.88019   0.88746   0.89090
 Alpha virt. eigenvalues --    0.89265   0.89325   0.89444   0.89568   0.89969
 Alpha virt. eigenvalues --    0.90028   0.90725   0.91029   0.91239   0.91437
 Alpha virt. eigenvalues --    0.91692   0.91901   0.92416   0.92435   0.92585
 Alpha virt. eigenvalues --    0.93013   0.93232   0.94338   0.94769   0.95017
 Alpha virt. eigenvalues --    0.95192   0.96916   0.97432   0.97573   0.97812
 Alpha virt. eigenvalues --    0.98229   0.98620   0.98745   1.00141   1.00315
 Alpha virt. eigenvalues --    1.00606   1.00777   1.01243   1.01575   1.02244
 Alpha virt. eigenvalues --    1.02454   1.02808   1.03206   1.03450   1.03665
 Alpha virt. eigenvalues --    1.04329   1.05593   1.06062   1.06243   1.06994
 Alpha virt. eigenvalues --    1.08042   1.08385   1.08678   1.09059   1.09660
 Alpha virt. eigenvalues --    1.10212   1.10420   1.10970   1.11280   1.11400
 Alpha virt. eigenvalues --    1.11800   1.12016   1.12621   1.13038   1.13575
 Alpha virt. eigenvalues --    1.14182   1.14505   1.14711   1.15095   1.15306
 Alpha virt. eigenvalues --    1.15442   1.15890   1.16215   1.16365   1.18035
 Alpha virt. eigenvalues --    1.18500   1.19613   1.20025   1.21422   1.21572
 Alpha virt. eigenvalues --    1.21847   1.21890   1.22245   1.23180   1.23602
 Alpha virt. eigenvalues --    1.25352   1.25771   1.26305   1.27118   1.27222
 Alpha virt. eigenvalues --    1.27369   1.27763   1.28336   1.28643   1.29661
 Alpha virt. eigenvalues --    1.30066   1.30170   1.31569   1.32354   1.32948
 Alpha virt. eigenvalues --    1.33460   1.33726   1.34066   1.34813   1.35459
 Alpha virt. eigenvalues --    1.35610   1.35859   1.36168   1.36710   1.37432
 Alpha virt. eigenvalues --    1.37500   1.37718   1.37815   1.39150   1.39237
 Alpha virt. eigenvalues --    1.39863   1.39908   1.40183   1.40190   1.40510
 Alpha virt. eigenvalues --    1.40603   1.40701   1.41181   1.41251   1.41437
 Alpha virt. eigenvalues --    1.41692   1.41929   1.42056   1.42184   1.42384
 Alpha virt. eigenvalues --    1.42877   1.43172   1.43459   1.43868   1.44530
 Alpha virt. eigenvalues --    1.44721   1.44797   1.45812   1.46203   1.46506
 Alpha virt. eigenvalues --    1.46947   1.48617   1.49934   1.50023   1.50193
 Alpha virt. eigenvalues --    1.52419   1.52867   1.54850   1.57109   1.57186
 Alpha virt. eigenvalues --    1.59067   1.60986   1.61245   1.61951   1.68720
 Alpha virt. eigenvalues --    1.68762   1.70212   1.70274   1.71691   1.72191
 Alpha virt. eigenvalues --    1.72888   1.73170   1.74305   1.74568   1.77427
 Alpha virt. eigenvalues --    1.78258   1.78498   1.78757   1.81482   1.82386
 Alpha virt. eigenvalues --    1.83028   1.83463   1.84634   1.85422   1.85444
 Alpha virt. eigenvalues --    1.85642   1.86031   1.86091   1.86678   1.87010
 Alpha virt. eigenvalues --    1.87241   1.87690   1.89038   1.89087   1.89114
 Alpha virt. eigenvalues --    1.89314   1.90267   1.90426   1.90628   1.91310
 Alpha virt. eigenvalues --    1.91654   1.92261   1.92966   1.93193   1.93996
 Alpha virt. eigenvalues --    1.94415   1.94894   1.95108   1.95321   1.95344
 Alpha virt. eigenvalues --    1.95384   1.95502   1.96315   1.96558   1.96860
 Alpha virt. eigenvalues --    1.97740   1.98543   1.99316   1.99510   2.00013
 Alpha virt. eigenvalues --    2.00041   2.00120   2.00214   2.00436   2.00470
 Alpha virt. eigenvalues --    2.00869   2.01404   2.01871   2.02212   2.02963
 Alpha virt. eigenvalues --    2.03234   2.03526   2.04509   2.04686   2.05056
 Alpha virt. eigenvalues --    2.05320   2.06389   2.06696   2.06815   2.06909
 Alpha virt. eigenvalues --    2.06983   2.07138   2.07594   2.08002   2.08096
 Alpha virt. eigenvalues --    2.08318   2.09951   2.11271   2.11583   2.13323
 Alpha virt. eigenvalues --    2.15571   2.16196   2.16898   2.17437   2.19289
 Alpha virt. eigenvalues --    2.24456   2.24518   2.26590   2.26753   2.27006
 Alpha virt. eigenvalues --    2.27191   2.27215   2.27252   2.28590   2.28652
 Alpha virt. eigenvalues --    2.28773   2.28870   2.29076   2.29941   2.30038
 Alpha virt. eigenvalues --    2.30224   2.31571   2.35293   2.35417   2.35572
 Alpha virt. eigenvalues --    2.37060   2.37207   2.37248   2.37732   2.37788
 Alpha virt. eigenvalues --    2.38137   2.38244   2.38252   2.38265   2.39390
 Alpha virt. eigenvalues --    2.40043   2.40508   2.40689   2.40697   2.40824
 Alpha virt. eigenvalues --    2.41059   2.41130   2.41176   2.41432   2.42725
 Alpha virt. eigenvalues --    2.42851   2.45686   2.45736   2.45778   2.45912
 Alpha virt. eigenvalues --    2.46782   2.46979   2.48572   2.48995   2.49037
 Alpha virt. eigenvalues --    2.49427   2.49520   2.50680   2.52026   2.52147
 Alpha virt. eigenvalues --    2.52520   2.52916   2.53243   2.53652   2.53780
 Alpha virt. eigenvalues --    2.53870   2.55906   2.56084   2.56190   2.56233
 Alpha virt. eigenvalues --    2.56850   2.56928   2.57528   2.57628   2.58728
 Alpha virt. eigenvalues --    2.58740   2.58938   2.59177   2.59474   2.59517
 Alpha virt. eigenvalues --    2.59772   2.59863   2.60337   2.60516   2.60670
 Alpha virt. eigenvalues --    2.62551   2.62725   2.63068   2.63179   2.63291
 Alpha virt. eigenvalues --    2.63469   2.63593   2.67134   2.67507   2.67548
 Alpha virt. eigenvalues --    2.69629   2.70383   2.70524   2.70989   2.72243
 Alpha virt. eigenvalues --    2.72433   2.72707   2.75454   2.75701   2.75935
 Alpha virt. eigenvalues --    2.76473   2.76684   2.77042   2.78234   2.78486
 Alpha virt. eigenvalues --    2.81475   2.81509   2.81680   2.82037   2.84426
 Alpha virt. eigenvalues --    2.85987   2.86692   2.86989   2.87633   2.89199
 Alpha virt. eigenvalues --    2.89801   2.93904   2.93983   2.94259   2.94842
 Alpha virt. eigenvalues --    2.96068   2.99388   2.99489   3.05926   3.06030
 Alpha virt. eigenvalues --    3.06177   3.06472   3.07088   3.08201   3.08613
 Alpha virt. eigenvalues --    3.08838   3.11957   3.12533   3.18482   3.18500
 Alpha virt. eigenvalues --    3.18562   3.20140   3.20161   3.21351   3.26438
 Alpha virt. eigenvalues --    3.26451   3.26689   3.26835   3.28236   3.28305
 Alpha virt. eigenvalues --    3.28763   3.28863   3.29168   3.29794   3.30782
 Alpha virt. eigenvalues --    3.30972   3.36060   3.36965   3.37147   3.37210
 Alpha virt. eigenvalues --    3.38726   3.38968   3.43464   3.43952   3.45399
 Alpha virt. eigenvalues --    3.45597   3.52948   3.53120   3.53950   3.54021
 Alpha virt. eigenvalues --    3.54621   3.55003   3.77976   3.80093   3.88083
 Alpha virt. eigenvalues --    3.88171   3.89789   3.89839   4.03776   4.30315
 Alpha virt. eigenvalues --    4.31049   4.32032   4.32220   4.32264   4.32950
 Alpha virt. eigenvalues --    4.33562   4.33607   4.35109   4.36275   4.36859
 Alpha virt. eigenvalues --    4.37575   4.39870   4.44802   4.45012   4.46057
 Alpha virt. eigenvalues --    4.47157   4.48089   4.48366   4.49510   4.52127
 Alpha virt. eigenvalues --    4.52290   4.52455   4.53681   4.53907   4.54371
 Alpha virt. eigenvalues --    4.54655   4.55300   4.59086   4.60143   4.60175
 Alpha virt. eigenvalues --    4.62463   4.69249   4.69997   4.81287   4.83845
 Alpha virt. eigenvalues --    4.84896   4.85014   4.89488   4.90612
          Condensed to atoms (all electrons):
 Mulliken charges:
               1
     1  C    0.050063
     2  C   -0.024624
     3  C    0.012549
     4  C   -0.091849
     5  H    0.155453
     6  C   -0.058857
     7  H    0.154491
     8  C   -0.645287
     9  H    0.132636
    10  H    0.133606
    11  C    0.050861
    12  C   -0.034672
    13  C    0.016056
    14  C   -0.103017
    15  H    0.154683
    16  C   -0.034333
    17  H    0.155484
    18  C   -0.658902
    19  H    0.132353
    20  H    0.134209
    21  N    0.186489
    22  N    0.187781
    23  C   -0.532068
    24  C    0.201182
    25  C    0.294233
    26  C   -0.207838
    27  H    0.127255
    28  C   -0.273866
    29  H    0.128900
    30  C   -0.076312
    31  H    0.129275
    32  H    0.128031
    33  H    0.125742
    34  C   -0.342709
    35  C    0.171733
    36  C    0.142370
    37  C   -0.207753
    38  H    0.125927
    39  C   -0.231952
    40  H    0.132567
    41  C   -0.127898
    42  H    0.128596
    43  H    0.130354
    44  H    0.126162
    45  C   -0.341186
    46  C    0.131647
    47  C    0.183501
    48  C   -0.236057
    49  H    0.132161
    50  C   -0.204717
    51  H    0.126269
    52  C   -0.129163
    53  H    0.130348
    54  H    0.128592
    55  H    0.126163
    56  C   -0.539541
    57  C    0.311600
    58  C    0.179125
    59  C   -0.256567
    60  H    0.129108
    61  C   -0.206127
    62  H    0.126927
    63  C   -0.078255
    64  H    0.127881
    65  H    0.129164
    66  H    0.125659
    67  S    0.676042
    68  O   -0.433230
    69  O   -0.436445
 Sum of Mulliken charges =  -0.00000
 Mulliken charges with hydrogens summed into heavy atoms:
               1
     1  C    0.050063
     2  C    0.130829
     3  C    0.167040
     4  C    0.040787
     6  C    0.074749
     8  C   -0.645287
    11  C    0.050861
    12  C    0.120010
    13  C    0.171540
    14  C    0.029336
    16  C    0.099876
    18  C   -0.658902
    21  N    0.186489
    22  N    0.187781
    23  C   -0.532068
    24  C    0.328437
    25  C    0.423133
    26  C   -0.078564
    28  C   -0.145835
    30  C    0.049430
    34  C   -0.342709
    35  C    0.297659
    36  C    0.274937
    37  C   -0.079156
    39  C   -0.101597
    41  C   -0.001737
    45  C   -0.341186
    46  C    0.263808
    47  C    0.309770
    48  C   -0.105709
    50  C   -0.076125
    52  C   -0.003000
    56  C   -0.539541
    57  C    0.440707
    58  C    0.306052
    59  C   -0.128686
    61  C   -0.076962
    63  C    0.047404
    67  S    0.676042
    68  O   -0.433230
    69  O   -0.436445
 DipInt: DoE/N= T F RetVal/Mat= T F Init=T NMatP=  1 IDeriv=0 Min/MaxMlt=  0  4
 Entering OneElI...
 OneElI was handed  1608460105 working-precision words.
 Multipole integrals L=0 to 4 MinM= 0 MaxM= 0.
 Requested accuracy = 0.1000D-12
 ShPair: Thresh= 1.00D-13 NBox=     0 BxSize= 0.00D+00 RnKept= 3.32D+01
         NSMCal=                42195 NSMKep=               25807
 PrsmSu:  NPrtUS=   1 ThrOK=F IAlg=1 NPAlg=1 LenDen=           0.
 Prism:   IPart=     0 DynPar=F LinDyn=F Incr=         258.
 PRISM was handed  1606201167 working-precision words and 25807 shell-pairs
 IPart=  0 NShTot=       25807 NBatch=         152 AvBLen=       169.8
 PrSmSu:  NxtVal=            259.
 Electronic moments (au):
       -290.00000000       -779.44263813      -1369.49513815       -143.21855065
     -19296.94539153     -18094.18315593      -4356.95796033       5734.93318719
      -3824.79083649       1708.63924412    -173797.75936871    -222950.34523815
     -11222.07794976      57104.37767659     -37731.04871436     -46853.92840875
     -26884.27731554     -27784.13641095      32639.39190069     -10106.06097525
   -2974729.33537421   -3069070.88720303    -211397.39357190     446562.52400210
    -490759.50991795     910622.79109475     496915.46963630    -235420.75744194
      49209.19879250    -701048.80314601    -386884.70323361    -329455.43191838
    -171007.79561396     -22040.63264384     -41837.60503518
 Electronic spatial extent (au):  <R**2>=          41748.0865
 DipInt: DoE/N= F T RetVal/Mat= T F Init=T NMatP=  1 IDeriv=0 Min/MaxMlt=  0  4
 Nuclear    moments (au):
        290.00000000        780.99966947       1371.71537855        143.51905896
      19137.92812508      17932.18814374       4180.97693444      -5744.39496977
       3825.97765693      -1709.19257622     172482.52951122     220599.24981273
      10981.26871776     -57631.14258569      36922.79446695      46807.35558624
      26454.83213373      27001.46011160     -32770.56123528      10112.25293906
    2906805.16462206    3004774.39793162     195467.86724954    -437081.33751038
     483248.48917265    -900942.00837503    -494302.72268592     229071.72169547
     -46160.17594505     678967.08239390     373027.74935642     316557.13319814
     172903.34068881      19160.40993169      45663.17835213
 Total      moments (au):
         -0.00000000          1.55703134          2.22024040          0.30050831
       -159.01726645       -161.99501219       -175.98102589         -9.46178259
          1.18682044         -0.55333209      -1315.22985749      -2351.09542542
       -240.80923199       -526.76490910       -808.25424741        -46.57282251
       -429.44518181       -782.67629935       -131.16933459          6.19196381
     -67924.17075215     -64296.48927141     -15929.52632236       9481.18649172
      -7511.02074530       9680.78271972       2612.74695038      -6349.03574647
       3049.02284745     -22081.72075211     -13856.95387719     -12898.29872024
       1895.54507485      -2880.22271215       3825.57331695
 Traceless Quadrup. (au):
          6.64716839          3.66942265        -10.31659104         -9.46178259
          1.18682044         -0.55333209
 Charge=             -0.0000 electrons
 Dipole moment (field-independent basis, Debye):
    X=              3.9576    Y=              5.6433    Z=              0.7638  Tot=              6.9349
 Quadrupole moment (field-independent basis, Debye-Ang):
   XX=           -213.8837   YY=           -217.8888   ZZ=           -236.7005
   XY=            -12.7264   XZ=              1.5963   YZ=             -0.7443
 Traceless Quadrupole moment (field-independent basis, Debye-Ang):
   XX=              8.9407   YY=              4.9355   ZZ=            -13.8762
   XY=            -12.7264   XZ=              1.5963   YZ=             -0.7443
 Octapole moment (field-independent basis, Debye-Ang**2):
  XXX=           -936.1299  YYY=          -1673.4190  ZZZ=           -171.3987  XYY=           -374.9309
  XXY=           -575.2842  XXZ=            -33.1487  XZZ=           -305.6625  YZZ=           -557.0788
  YYZ=            -93.3613  XYZ=              4.4072
 Hexadecapole moment (field-independent basis, Debye-Ang**3):
 XXXX=         -25583.4981 YYYY=         -24217.1394 ZZZZ=          -5999.8231 XXXY=           3571.0692
 XXXZ=          -2829.0104 YYYX=           3646.2467 YYYZ=            984.0857 ZZZX=          -2391.3511
 ZZZY=           1148.4081 XXYY=          -8317.0343 XXZZ=          -5219.1929 YYZZ=          -4858.1175
 XXYZ=            713.9531 YYXZ=          -1084.8299 ZZXY=           1440.8943
 N-N= 4.366236449983D+03 E-N=-1.349827705664D+04  KE= 2.029435654546D+03
 Entering OneElI...
 OneElI was handed  1608883883 working-precision words.
 Calculate electrostatic properties
    NBasis =   923  MinDer = 0  MaxDer = 0
    NGrid  =    69  NMatD  =   1
 Requested accuracy = 0.1000D-12
 ShPair: Thresh= 1.00D-13 NBox=     0 BxSize= 0.00D+00 RnKept= 3.14D+01
         NSMCal=                42195 NSMKep=               22767
 PrsmSu:  NPrtUS=  12 ThrOK=T IAlg=1 NPAlg=1 LenDen=           0.
 Prism:   IPart=     0 DynPar=F LinDyn=F Incr=         512.
 PRISM was handed   133398991 working-precision words and 22767 shell-pairs
 PRISM was handed   133398991 working-precision words and 22767 shell-pairs
 PRISM was handed   133398991 working-precision words and 22767 shell-pairs
 PRISM was handed   133398991 working-precision words and 22767 shell-pairs
 PRISM was handed   133398991 working-precision words and 22767 shell-pairs
 PRISM was handed   133398991 working-precision words and 22767 shell-pairs
 PRISM was handed   133398991 working-precision words and 22767 shell-pairs
 PRISM was handed   133398991 working-precision words and 22767 shell-pairs
 PRISM was handed   133398991 working-precision words and 22767 shell-pairs
 PRISM was handed   133398991 working-precision words and 22767 shell-pairs
 PRISM was handed   133398991 working-precision words and 22767 shell-pairs
 PRISM was handed   133398991 working-precision words and 22767 shell-pairs
 IPart=  4 NShTot=      131376 NBatch=        1904 AvBLen=        69.0
 IPart=  3 NShTot=      131997 NBatch=        1913 AvBLen=        69.0
 IPart= 11 NShTot=      129030 NBatch=        1870 AvBLen=        69.0
 IPart=  9 NShTot=      129444 NBatch=        1876 AvBLen=        69.0
 IPart=  1 NShTot=      132756 NBatch=        1924 AvBLen=        69.0
 IPart=  5 NShTot=      131031 NBatch=        1899 AvBLen=        69.0
 IPart=  6 NShTot=      130686 NBatch=        1894 AvBLen=        69.0
 IPart=  0 NShTot=      132963 NBatch=        1927 AvBLen=        69.0
 IPart=  7 NShTot=      130203 NBatch=        1887 AvBLen=        69.0
 IPart=  2 NShTot=      132342 NBatch=        1918 AvBLen=        69.0
 IPart=  8 NShTot=      129858 NBatch=        1882 AvBLen=        69.0
 IPart= 10 NShTot=      129237 NBatch=        1873 AvBLen=        69.0
 PrSmSu:  NxtVal=           6145.
 --------------------------------------------------------
       Center         ----      EFG at Nuclei      ----
                      3XX-RR        3YY-RR        3ZZ-RR
 --------------------------------------------------------
     1   Atom       -0.062201     -0.106993      0.169194
     2   Atom       -0.239414      0.122931      0.116483
     3   Atom       -0.235714      0.115087      0.120627
     4   Atom       -0.136164      0.079814      0.056349
     5   Atom        0.103273      0.022006     -0.125279
     6   Atom       -0.147628      0.103346      0.044283
     7   Atom        0.147468      0.063342     -0.210810
     8   Atom       -0.147600     -0.090649      0.238249
     9   Atom        0.157582      0.062855     -0.220437
    10   Atom        0.100741      0.023353     -0.124093
    11   Atom       -0.097284     -0.066333      0.163616
    12   Atom        0.166769     -0.297945      0.131176
    13   Atom        0.144067     -0.297966      0.153899
    14   Atom        0.112209     -0.199504      0.087295
    15   Atom       -0.080858      0.157802     -0.076944
    16   Atom        0.125092     -0.195518      0.070426
    17   Atom        0.115090      0.154541     -0.269631
    18   Atom       -0.055600     -0.195077      0.250678
    19   Atom        0.112523      0.162098     -0.274621
    20   Atom       -0.083115      0.162284     -0.079169
    21   Atom        0.101808     -0.451842      0.350034
    22   Atom       -0.544816      0.505200      0.039616
    23   Atom        0.170386     -0.077447     -0.092939
    24   Atom        0.105996     -0.034802     -0.071193
    25   Atom        0.098171     -0.063314     -0.034857
    26   Atom        0.152520     -0.091225     -0.061295
    27   Atom       -0.300387      0.151824      0.148563
    28   Atom        0.120484     -0.073203     -0.047281
    29   Atom        0.025977      0.001946     -0.027923
    30   Atom        0.135770     -0.081916     -0.053854
    31   Atom        0.025088     -0.001198     -0.023890
    32   Atom       -0.301021      0.151262      0.149759
    33   Atom        0.031524     -0.004522     -0.027002
    34   Atom       -0.013275      0.139249     -0.125975
    35   Atom        0.088721      0.056814     -0.145535
    36   Atom        0.065677      0.046806     -0.112483
    37   Atom        0.112153      0.038859     -0.151012
    38   Atom       -0.189359      0.036875      0.152484
    39   Atom        0.085063      0.061968     -0.147032
    40   Atom        0.135119     -0.198914      0.063795
    41   Atom        0.085154      0.054025     -0.139180
    42   Atom        0.137188     -0.204638      0.067450
    43   Atom       -0.187379      0.034496      0.152882
    44   Atom       -0.117543      0.075967      0.041575
    45   Atom        0.015038      0.125263     -0.140300
    46   Atom        0.060120      0.051606     -0.111726
    47   Atom        0.077884      0.066940     -0.144823
    48   Atom        0.075736      0.088239     -0.163975
    49   Atom       -0.168440      0.045910      0.122530
    50   Atom        0.045414      0.114043     -0.159457
    51   Atom        0.133022     -0.259421      0.126399
    52   Atom        0.051179      0.102653     -0.153832
    53   Atom        0.132810     -0.260034      0.127223
    54   Atom       -0.170404      0.046401      0.124003
    55   Atom       -0.067931      0.033958      0.033973
    56   Atom        0.013357      0.084443     -0.097799
    57   Atom       -0.072065      0.039639      0.032426
    58   Atom       -0.059243      0.061769     -0.002526
    59   Atom       -0.096040      0.072521      0.023519
    60   Atom       -0.028463      0.075894     -0.047431
    61   Atom       -0.110341      0.101515      0.008826
    62   Atom        0.101510     -0.240731      0.139221
    63   Atom       -0.091920      0.087357      0.004563
    64   Atom        0.099210     -0.240532      0.141322
    65   Atom       -0.034116      0.077377     -0.043261
    66   Atom        0.111778      0.007018     -0.118796
    67   Atom        0.048139     -0.007553     -0.040586
    68   Atom        0.225073      0.445282     -0.670355
    69   Atom        0.747489      0.304438     -1.051927
 --------------------------------------------------------
                        XY            XZ            YZ
 --------------------------------------------------------
     1   Atom        0.021169     -0.063789      0.024905
     2   Atom       -0.126208     -0.095971     -0.008792
     3   Atom       -0.117472     -0.098321     -0.054291
     4   Atom       -0.099053     -0.079651     -0.050539
     5   Atom        0.085461      0.118886     -0.177738
     6   Atom       -0.074739     -0.096812     -0.018448
     7   Atom       -0.014379      0.049212      0.169555
     8   Atom       -0.035643     -0.139668      0.004306
     9   Atom       -0.008776      0.037672      0.166801
    10   Atom        0.090540      0.129223     -0.173275
    11   Atom        0.009609     -0.081698      0.012007
    12   Atom        0.008605     -0.015489      0.021313
    13   Atom        0.001713      0.022018      0.036504
    14   Atom       -0.024865      0.023738      0.043328
    15   Atom        0.007906      0.218543     -0.005072
    16   Atom        0.008721     -0.002958      0.056973
    17   Atom       -0.005607     -0.101073     -0.035609
    18   Atom       -0.008336     -0.095396      0.053766
    19   Atom       -0.006498     -0.101514     -0.022062
    20   Atom        0.015114      0.218444     -0.015293
    21   Atom        0.290748      0.777393      0.339539
    22   Atom        0.181248     -0.141509     -0.802263
    23   Atom       -0.129936      0.113205     -0.057641
    24   Atom        0.005641     -0.028887     -0.181233
    25   Atom       -0.009507     -0.039631     -0.178132
    26   Atom        0.007965     -0.009443     -0.201799
    27   Atom       -0.003361     -0.000164      0.011695
    28   Atom       -0.002683      0.006013     -0.216195
    29   Atom        0.128524     -0.142181      0.174404
    30   Atom       -0.007580      0.013655     -0.183800
    31   Atom        0.132386     -0.141459      0.172847
    32   Atom       -0.000563     -0.001805      0.010241
    33   Atom       -0.130237      0.138986      0.177828
    34   Atom        0.177463      0.036691      0.063282
    35   Atom        0.022698     -0.113041      0.113322
    36   Atom        0.038068     -0.129737      0.120452
    37   Atom        0.065518     -0.115081      0.148527
    38   Atom       -0.191711      0.027892      0.003070
    39   Atom        0.050570     -0.109205      0.166953
    40   Atom       -0.043242     -0.015462     -0.185711
    41   Atom        0.068407     -0.089766      0.145754
    42   Atom       -0.045040     -0.015627     -0.182036
    43   Atom       -0.193383      0.026191      0.004246
    44   Atom        0.130404      0.178115     -0.096735
    45   Atom        0.191371      0.006241      0.013518
    46   Atom        0.037420     -0.132841      0.118384
    47   Atom        0.020559     -0.116697      0.112321
    48   Atom        0.055126     -0.160033      0.098902
    49   Atom       -0.173588      0.110975      0.051171
    50   Atom        0.046620     -0.149535      0.115001
    51   Atom       -0.067339     -0.007868     -0.112052
    52   Atom        0.062953     -0.135793      0.089518
    53   Atom       -0.069914     -0.010069     -0.110602
    54   Atom       -0.176032      0.106451      0.049372
    55   Atom        0.148658      0.169078     -0.120758
    56   Atom       -0.183975      0.078117     -0.080727
    57   Atom       -0.094397      0.134464      0.098123
    58   Atom       -0.077022      0.149987      0.100360
    59   Atom       -0.104628      0.184215      0.073582
    60   Atom        0.113420     -0.197184      0.107448
    61   Atom       -0.111010      0.163861      0.089858
    62   Atom        0.146408      0.007137     -0.049775
    63   Atom       -0.109382      0.156201      0.058164
    64   Atom        0.147887      0.007710     -0.047638
    65   Atom        0.115651     -0.196440      0.107395
    66   Atom       -0.068792     -0.113831     -0.194429
    67   Atom       -0.096088      0.033043     -0.029594
    68   Atom       -0.480609      0.870881      0.493389
    69   Atom       -0.159574     -0.000597     -0.823219
 --------------------------------------------------------


 ---------------------------------------------------------------------------------
              Nuclear Quadrupole Coupling Constant in Principal Axis System
 ---------------------------------------------------------------------------------

[...]
 **** Fit       0.009558
 **** Fit       0.010459
 **** Fit       0.011110
 **** Fit       0.011563
 **** Fit       0.011911
 **** Fit       0.007809
 **** Fit       0.009283
 **** Fit       0.010463
 **** Fit       0.011444
 **** Fit       0.009532
 **** Fit       0.007765
 **** Fit       0.008655
 **** Fit       0.008677
 **** Fit       0.007668
 **** Fit       0.006505
 **** Fit       0.006867
 **** Fit       0.007961
 **** Fit       0.009216
 **** Fit       0.009455
 **** Fit       0.009580
 **** Fit       0.009201
 **** Fit       0.007783
 **** Fit       0.004829
 **** Fit       0.005006
 **** Fit       0.005993
 **** Fit       0.007189
 **** Fit       0.008185
 **** Fit       0.008841
 **** Fit       0.009482
 **** Fit       0.009672
 **** Fit       0.009975
 **** Fit       0.010425
 **** Fit       0.003873
 **** Fit       0.005151
 **** Fit       0.006449
 **** Fit       0.007561
 **** Fit       0.008395
 **** Fit       0.008950
 **** Fit       0.009282
 **** Fit       0.009479
 **** Fit       0.009572
 **** Fit       0.009812
 **** Fit       0.010347
 **** Fit       0.003850
 **** Fit       0.005341
 **** Fit       0.006653
 **** Fit       0.007701
 **** Fit       0.008465
 **** Fit       0.008971
 **** Fit       0.009265
 **** Fit       0.009410
 **** Fit       0.009229
 **** Fit       0.009201
 **** Fit       0.009311
 **** Fit       0.009719
 **** Fit       0.010656
 **** Fit       0.003641
 **** Fit       0.005267
 **** Fit       0.006622
 **** Fit       0.007668
 **** Fit       0.008414
 **** Fit       0.008899
 **** Fit       0.009173
 **** Fit       0.009284
 **** Fit       0.009282
 **** Fit       0.008745
 **** Fit       0.008586
 **** Fit       0.008526
 **** Fit       0.008694
 **** Fit       0.009297
 **** Fit       0.003674
 **** Fit       0.005363
 **** Fit       0.006707
 **** Fit       0.007702
 **** Fit       0.008385
 **** Fit       0.008812
 **** Fit       0.009036
 **** Fit       0.009104
 **** Fit       0.009053
 **** Fit       0.008919
 **** Fit       0.008040
 **** Fit       0.007735
 **** Fit       0.007495
 **** Fit       0.007428
 **** Fit       0.007714
 **** Fit       0.006333
 **** Fit       0.007481
 **** Fit       0.008227
 **** Fit       0.008659
 **** Fit       0.008861
 **** Fit       0.008893
 **** Fit       0.008799
 **** Fit       0.008608
 **** Fit       0.008345
 **** Fit       0.007121
 **** Fit       0.006666
 **** Fit       0.006231
 **** Fit       0.005889
 **** Fit       0.007545
 **** Fit       0.008316
 **** Fit       0.008688
 **** Fit       0.008794
 **** Fit       0.008727
 **** Fit       0.008546
 **** Fit       0.008282
 **** Fit       0.007948
 **** Fit       0.007557
 **** Fit       0.005994
 **** Fit       0.005377
 **** Fit       0.004736
 **** Fit       0.009167
 **** Fit       0.009085
 **** Fit       0.008808
 **** Fit       0.008440
 **** Fit       0.008026
 **** Fit       0.007579
 **** Fit       0.007096
 **** Fit       0.006568
 **** Fit       0.004656
 **** Fit       0.003842
 **** Fit       0.009009
 **** Fit       0.008195
 **** Fit       0.007457
 **** Fit       0.006768
 **** Fit       0.006095
 **** Fit       0.005401
 **** Fit       0.006920
 **** Fit       0.005867
 **** Fit       0.004940
 **** Fit       0.004042
 **** Fit       0.008028
 **** Fit       0.008810
 **** Fit       0.008811
 **** Fit       0.008093
 **** Fit       0.007063
 **** Fit       0.007008
 **** Fit       0.008068
 **** Fit       0.009385
 **** Fit       0.009465
 **** Fit       0.009373
 **** Fit       0.008997
 **** Fit       0.008222
 **** Fit       0.007089
 **** Fit       0.005937
 **** Fit       0.005334
 **** Fit       0.005722
 **** Fit       0.006962
 **** Fit       0.008289
 **** Fit       0.009079
 **** Fit       0.009727
 **** Fit       0.009727
 **** Fit       0.009746
 **** Fit       0.009720
 **** Fit       0.009552
 **** Fit       0.009142
 **** Fit       0.008403
 **** Fit       0.007315
 **** Fit       0.005986
 **** Fit       0.004669
 **** Fit       0.003714
 **** Fit       0.007399
 **** Fit       0.008825
 **** Fit       0.009536
 **** Fit       0.009724
 **** Fit       0.009803
 **** Fit       0.009704
 **** Fit       0.009725
 **** Fit       0.009802
 **** Fit       0.009862
 **** Fit       0.009827
 **** Fit       0.009617
 **** Fit       0.009144
 **** Fit       0.008331
 **** Fit       0.007151
 **** Fit       0.005666
 **** Fit       0.004053
 **** Fit       0.010410
 **** Fit       0.010348
 **** Fit       0.010046
 **** Fit       0.009574
 **** Fit       0.009385
 **** Fit       0.009394
 **** Fit       0.009521
 **** Fit       0.009697
 **** Fit       0.009859
 **** Fit       0.009946
 **** Fit       0.009886
 **** Fit       0.009596
 **** Fit       0.008979
 **** Fit       0.007954
 **** Fit       0.006499
 **** Fit       0.004696
 **** Fit       0.010799
 **** Fit       0.010037
 **** Fit       0.008993
 **** Fit       0.008747
 **** Fit       0.008751
 **** Fit       0.008912
 **** Fit       0.009162
 **** Fit       0.009450
 **** Fit       0.009734
 **** Fit       0.009966
 **** Fit       0.010091
 **** Fit       0.010030
 **** Fit       0.009678
 **** Fit       0.008917
 **** Fit       0.007654
 **** Fit       0.009607
 **** Fit       0.008006
 **** Fit       0.007754
 **** Fit       0.007798
 **** Fit       0.008028
 **** Fit       0.008371
 **** Fit       0.008780
 **** Fit       0.009222
 **** Fit       0.009666
 **** Fit       0.010072
 **** Fit       0.010380
 **** Fit       0.010487
 **** Fit       0.010242
 **** Fit       0.009457
 **** Fit       0.008724
 **** Fit       0.006561
 **** Fit       0.006384
 **** Fit       0.006510
 **** Fit       0.006826
 **** Fit       0.007265
 **** Fit       0.007788
 **** Fit       0.008374
 **** Fit       0.009009
 **** Fit       0.009678
 **** Fit       0.010352
 **** Fit       0.010968
 **** Fit       0.011395
 **** Fit       0.004886
 **** Fit       0.005332
 **** Fit       0.005898
 **** Fit       0.006556
 **** Fit       0.007300
 **** Fit       0.008136
 **** Fit       0.009075
 **** Fit       0.010130
 **** Fit       0.011290
 **** Fit       0.004376
 **** Fit       0.005236
 **** Fit       0.006218
 **** Fit       0.007358
 **** Fit       0.008720
 **** Fit      -0.029226
 **** Fit      -0.029729
 **** Fit      -0.026188
 **** Fit      -0.033563
 **** Fit      -0.030056
 **** Fit      -0.026768
 **** Fit      -0.023864
 **** Fit      -0.037439
 **** Fit      -0.034392
 **** Fit      -0.031256
 **** Fit      -0.028172
 **** Fit      -0.025284
 **** Fit      -0.022720
 **** Fit      -0.026832
 **** Fit      -0.030292
 **** Fit      -0.040683
 **** Fit      -0.038565
 **** Fit      -0.036106
 **** Fit      -0.033412
 **** Fit      -0.030598
 **** Fit      -0.027778
 **** Fit      -0.025080
 **** Fit      -0.022626
 **** Fit      -0.023935
 **** Fit      -0.026832
 **** Fit      -0.029885
 **** Fit      -0.032890
 **** Fit      -0.035661
 **** Fit      -0.038056
 **** Fit      -0.039968
 **** Fit      -0.041330
 **** Fit      -0.042111
 **** Fit      -0.042309
 **** Fit      -0.041946
 **** Fit      -0.041060
 **** Fit      -0.039699
 **** Fit      -0.037926
 **** Fit      -0.035808
 **** Fit      -0.033423
 **** Fit      -0.030862
 **** Fit      -0.028222
 **** Fit      -0.025618
 **** Fit      -0.023175
 **** Fit      -0.021768
 **** Fit      -0.024235
 **** Fit      -0.027005
 **** Fit      -0.029891
 **** Fit      -0.032715
 **** Fit      -0.035315
 **** Fit      -0.037564
 **** Fit      -0.039371
 **** Fit      -0.040677
 **** Fit      -0.041451
 **** Fit      -0.041688
 **** Fit      -0.041397
 **** Fit      -0.040601
 **** Fit      -0.039333
 **** Fit      -0.037637
 **** Fit      -0.035567
 **** Fit      -0.033191
 **** Fit      -0.030595
 **** Fit      -0.027886
 **** Fit      -0.025192
 **** Fit      -0.022540
 **** Fit      -0.025026
 **** Fit      -0.027769
 **** Fit      -0.030600
 **** Fit      -0.033356
 **** Fit      -0.035899
 **** Fit      -0.038115
 **** Fit      -0.039920
 **** Fit      -0.041256
 **** Fit      -0.042087
 **** Fit      -0.042396
 **** Fit      -0.042177
 **** Fit      -0.036283
 **** Fit      -0.033744
 **** Fit      -0.030922
 **** Fit      -0.027929
 **** Fit      -0.022669
 **** Fit      -0.025138
 **** Fit      -0.027918
 **** Fit      -0.030844
 **** Fit      -0.033750
 **** Fit      -0.036491
 **** Fit      -0.038944
 **** Fit      -0.041012
 **** Fit      -0.024506
 **** Fit      -0.027320
 **** Fit      -0.030417
 **** Fit      -0.033616
 **** Fit      -0.036744
 **** Fit      -0.024200
 **** Fit      -0.027088
 **** Fit      -0.030378
 **** Fit      -0.033877
 **** Fit      -0.028536
 **** Fit      -0.018685
 **** Fit      -0.017346
 **** Fit      -0.021517
 **** Fit      -0.022816
 **** Fit      -0.019985
 **** Fit      -0.011340
 **** Fit      -0.015650
 **** Fit      -0.020124
 **** Fit      -0.023685
 **** Fit      -0.025753
 **** Fit      -0.026190
 **** Fit      -0.024851
 **** Fit      -0.021444
 **** Fit      -0.018012
 **** Fit      -0.022259
 **** Fit      -0.025452
 **** Fit      -0.027574
 **** Fit      -0.028727
 **** Fit      -0.028963
 **** Fit      -0.028235
 **** Fit      -0.026385
 **** Fit      -0.023116
 **** Fit      -0.020155
 **** Fit      -0.024086
 **** Fit      -0.026981
 **** Fit      -0.029021
 **** Fit      -0.030363
 **** Fit      -0.031102
 **** Fit      -0.031273
 **** Fit      -0.030849
 **** Fit      -0.029753
 **** Fit      -0.027848
 **** Fit      -0.024918
 **** Fit      -0.023942
 **** Fit      -0.027114
 **** Fit      -0.029427
 **** Fit      -0.031089
 **** Fit      -0.032232
 **** Fit      -0.032933
 **** Fit      -0.033224
 **** Fit      -0.033095
 **** Fit      -0.032508
 **** Fit      -0.031395
 **** Fit      -0.029665
 **** Fit      -0.027188
 **** Fit      -0.021371
 **** Fit      -0.025465
 **** Fit      -0.028451
 **** Fit      -0.030659
 **** Fit      -0.032293
 **** Fit      -0.033479
 **** Fit      -0.034290
 **** Fit      -0.034766
 **** Fit      -0.034913
 **** Fit      -0.034714
 **** Fit      -0.034131
 **** Fit      -0.033112
 **** Fit      -0.031597
 **** Fit      -0.029526
 **** Fit      -0.026816
 **** Fit      -0.023344
 **** Fit      -0.026985
 **** Fit      -0.029703
 **** Fit      -0.031768
 **** Fit      -0.033346
 **** Fit      -0.034540
 **** Fit      -0.035413
 **** Fit      -0.036002
 **** Fit      -0.036322
 **** Fit      -0.036365
 **** Fit      -0.036109
 **** Fit      -0.035520
 **** Fit      -0.034554
 **** Fit      -0.033174
 **** Fit      -0.031354
 **** Fit      -0.029089
 **** Fit      -0.026790
 **** Fit      -0.029628
 **** Fit      -0.031842
 **** Fit      -0.033583
 **** Fit      -0.034947
 **** Fit      -0.036001
 **** Fit      -0.036785
 **** Fit      -0.037323
 **** Fit      -0.037619
 **** Fit      -0.037666
 **** Fit      -0.037440
 **** Fit      -0.036907
 **** Fit      -0.036030
 **** Fit      -0.034776
 **** Fit      -0.033129
 **** Fit      -0.031103
 **** Fit      -0.026256
 **** Fit      -0.029269
 **** Fit      -0.031685
 **** Fit      -0.033636
 **** Fit      -0.035202
 **** Fit      -0.036446
 **** Fit      -0.037409
 **** Fit      -0.038120
 **** Fit      -0.038591
 **** Fit      -0.038816
 **** Fit      -0.038781
 **** Fit      -0.038453
 **** Fit      -0.037793
 **** Fit      -0.036761
 **** Fit      -0.035324
 **** Fit      -0.033476
 **** Fit      -0.028718
 **** Fit      -0.031253
 **** Fit      -0.033382
 **** Fit      -0.035148
 **** Fit      -0.036594
 **** Fit      -0.037754
 **** Fit      -0.038654
 **** Fit      -0.039309
 **** Fit      -0.039724
 **** Fit      -0.039884
 **** Fit      -0.039768
 **** Fit      -0.039335
 **** Fit      -0.038543
 **** Fit      -0.037344
 **** Fit      -0.035702
 **** Fit      -0.029191
 **** Fit      -0.031663
 **** Fit      -0.033825
 **** Fit      -0.035669
 **** Fit      -0.037210
 **** Fit      -0.038466
 **** Fit      -0.039456
 **** Fit      -0.040191
 **** Fit      -0.040674
 **** Fit      -0.040887
 **** Fit      -0.040803
 **** Fit      -0.040381
 **** Fit      -0.039567
 **** Fit      -0.032945
 **** Fit      -0.035093
 **** Fit      -0.036941
 **** Fit      -0.038490
 **** Fit      -0.039752
 **** Fit      -0.040738
 **** Fit      -0.041449
 **** Fit      -0.041877
 **** Fit      -0.041992
 **** Fit      -0.041754
 **** Fit      -0.038257
 **** Fit      -0.039867
 **** Fit      -0.041184
 **** Fit      -0.042215
 **** Fit      -0.042586
 **** Fit      -0.042088
 **** Fit      -0.041256
 **** Fit      -0.040134
 **** Fit      -0.038744
 **** Fit      -0.037104
 **** Fit      -0.035220
 **** Fit      -0.033100
 **** Fit      -0.030747
 **** Fit      -0.040166
 **** Fit      -0.041010
 **** Fit      -0.041413
 **** Fit      -0.041426
 **** Fit      -0.041093
 **** Fit      -0.040455
 **** Fit      -0.039541
 **** Fit      -0.038367
 **** Fit      -0.036936
 **** Fit      -0.035247
 **** Fit      -0.033282
 **** Fit      -0.031013
 **** Fit      -0.028384
 **** Fit      -0.035489
 **** Fit      -0.037310
 **** Fit      -0.038707
 **** Fit      -0.039674
 **** Fit      -0.040235
 **** Fit      -0.040425
 **** Fit      -0.040285
 **** Fit      -0.039844
 **** Fit      -0.039131
 **** Fit      -0.038154
 **** Fit      -0.036915
 **** Fit      -0.035403
 **** Fit      -0.033590
 **** Fit      -0.031421
 **** Fit      -0.028807
 **** Fit      -0.025570
 **** Fit      -0.032051
 **** Fit      -0.034158
 **** Fit      -0.035942
 **** Fit      -0.037356
 **** Fit      -0.038388
 **** Fit      -0.039050
 **** Fit      -0.039364
 **** Fit      -0.039364
 **** Fit      -0.039075
 **** Fit      -0.038519
 **** Fit      -0.037704
 **** Fit      -0.036631
 **** Fit      -0.035281
 **** Fit      -0.033620
 **** Fit      -0.031588
 **** Fit      -0.029080
 **** Fit      -0.025909
 **** Fit      -0.027886
 **** Fit      -0.030490
 **** Fit      -0.032725
 **** Fit      -0.034591
 **** Fit      -0.036073
 **** Fit      -0.037166
 **** Fit      -0.037882
 **** Fit      -0.038243
 **** Fit      -0.038278
 **** Fit      -0.038013
 **** Fit      -0.037464
 **** Fit      -0.036637
 **** Fit      -0.035523
 **** Fit      -0.034093
 **** Fit      -0.032293
 **** Fit      -0.030030
 **** Fit      -0.027147
 **** Fit      -0.023384
 **** Fit      -0.026646
 **** Fit      -0.029625
 **** Fit      -0.032004
 **** Fit      -0.033885
 **** Fit      -0.035306
 **** Fit      -0.036293
 **** Fit      -0.036872
 **** Fit      -0.037075
 **** Fit      -0.036933
 **** Fit      -0.036463
 **** Fit      -0.035673
 **** Fit      -0.034551
 **** Fit      -0.033059
 **** Fit      -0.031129
 **** Fit      -0.028648
 **** Fit      -0.025437
 **** Fit      -0.025001
 **** Fit      -0.028426
 **** Fit      -0.031005
 **** Fit      -0.032937
 **** Fit      -0.034317
 **** Fit      -0.035202
 **** Fit      -0.035635
 **** Fit      -0.035656
 **** Fit      -0.035291
 **** Fit      -0.034550
 **** Fit      -0.033421
 **** Fit      -0.031866
 **** Fit      -0.029809
 **** Fit      -0.027141
 **** Fit      -0.023729
 **** Fit      -0.009036
 **** Fit      -0.024969
 **** Fit      -0.028392
 **** Fit      -0.030858
 **** Fit      -0.032561
 **** Fit      -0.033613
 **** Fit      -0.034086
 **** Fit      -0.034036
 **** Fit      -0.033492
 **** Fit      -0.032460
 **** Fit      -0.030909
 **** Fit      -0.028781
 **** Fit      -0.026006
 **** Fit      -0.022567
 **** Fit      -0.018647
 **** Fit      -0.018233
 **** Fit      -0.015148
 **** Fit      -0.022599
 **** Fit      -0.026644
 **** Fit      -0.029492
 **** Fit      -0.031292
 **** Fit      -0.032183
 **** Fit      -0.032266
 **** Fit      -0.031599
 **** Fit      -0.030203
 **** Fit      -0.028060
 **** Fit      -0.025183
 **** Fit      -0.021752
 **** Fit      -0.020812
 **** Fit      -0.017948
 **** Fit      -0.020481
 **** Fit      -0.024731
 **** Fit      -0.027994
 **** Fit      -0.029804
 **** Fit      -0.030196
 **** Fit      -0.029287
 **** Fit      -0.027197
 **** Fit      -0.024169
 **** Fit      -0.022897
 **** Fit      -0.020985
 **** Fit      -0.022881
 **** Fit      -0.026402
 **** Fit      -0.027727
 **** Fit      -0.026117
 **** Fit      -0.024719
 -----------------------------------------------------------------
 Leave Link  602 at Sat Jul 31 18:39:12 2021, MaxMem=  1610612736 cpu:        25.1

 Test job not archived.
 1\1\GINC-NODE46\FOpt\RB3LYP\6-31+G(d,p)\C36H28N2O2S1\JIN\31-Jul-2021\0
 \\# opt b3lyp/6-31+g(d,p) iop(6/33=2,6/42=6) pop=mk scf=tight nosymm\\
 Title Card Required\\0,1\C,-0.9079432123,1.5997402624,-0.3468171935\C,
 -0.7686876994,2.2013018137,-1.6009188765\C,-1.4320730304,2.3220851223,
 0.7287084823\C,-1.1499638361,3.5270300649,-1.7782521272\H,-0.398989817
 9,1.6203826236,-2.4391591291\C,-1.8031542465,3.6513862763,0.5543320347
 \H,-1.5551930884,1.8414919977,1.6934750344\C,-1.667360918,4.2764847544
 ,-0.7019365321\H,-1.0613010189,3.9847801411,-2.7571233879\H,-2.2042366
 391,4.2105265221,1.3921390715\C,1.3099589316,-0.0654005174,0.362226461
 3\C,1.6530967814,0.0336673953,1.7137732233\C,2.3052699131,-0.135724557
 ,-0.6163650968\C,2.9928527562,0.0669489693,2.0861104653\H,0.8741920681
 ,0.0465370478,2.468740629\C,3.6452738517,-0.0929847991,-0.2446235699\H
 ,2.0290516823,-0.2318595726,-1.6610333946\C,4.0108442817,0.0104636309,
 1.1126385324\H,3.2579933516,0.123163006,3.1359855539\H,4.4155613125,-0
 .1433424005,-1.0060451043\N,-2.0504404401,5.6213953098,-0.8806482689\N
 ,5.3690972343,0.0481649155,1.4905408731\C,-1.3509003983,6.4621192997,-
 1.7968345458\C,-2.0618683271,7.2908227927,-2.6788692262\C,0.0528746744
 ,6.4851704269,-1.8162180091\C,-1.3776715751,8.1285891804,-3.5606109796
 \H,-3.1469029341,7.2769670128,-2.6669535101\C,0.7295225766,7.313227039
 8,-2.7124940758\H,0.607870177,5.8543136555,-1.1293289167\C,0.019894620
 1,8.1417766686,-3.5870853337\H,-1.9414789109,8.7642958441,-4.237316046
 \H,1.8157742095,7.3197675889,-2.7162026293\H,0.5490718607,8.7900292177
 ,-4.278793603\C,-3.1441218318,6.1679086134,-0.1430082865\C,-3.01402463
 74,7.4118300834,0.4933384487\C,-4.3630266406,5.476909022,-0.0579706749
 \C,-4.0888162728,7.9552830473,1.1985227114\H,-2.0727510609,7.948246808
 9,0.4292365603\C,-5.4274718855,6.0188846121,0.6634013598\H,-4.47117118
 22,4.5186406334,-0.5559982545\C,-5.2985947089,7.2611853061,1.292199672
 4\H,-3.9743102332,8.9193010165,1.6858708066\H,-6.3645939629,5.47279505
 55,0.7217441309\H,-6.1310466535,7.6831744584,1.8469123818\C,6.34635214
 95,-0.6896393273,0.7568182509\C,6.1141957131,-2.0296778383,0.408659282
 3\C,7.5585140877,-0.0851585783,0.3894702535\C,7.0757636073,-2.74563125
 01,-0.3052616316\H,5.1820860798,-2.5044068105,0.6979162987\C,8.5220280
 183,-0.812998103,-0.3102481081\H,7.7414657495,0.950317169,0.6579541656
 \C,8.2853862515,-2.1440729617,-0.6657880029\H,6.8823383797,-3.78163908
 31,-0.5681489691\H,9.4560651926,-0.3326437314,-0.5873511365\H,9.034299
 0907,-2.7061083012,-1.2153253873\C,5.7879502464,0.820306376,2.61471035
 84\C,5.3338320531,2.1381717171,2.7837207617\C,6.6736396597,0.274843303
 6,3.5571157525\C,5.7494913206,2.8887422229,3.8840094058\H,4.6573246627
 ,2.5686429916,2.0523285088\C,7.0977136462,1.0377859425,4.6460060292\H,
 7.0275343036,-0.7432124211,3.4307500398\C,6.6355201135,2.3456320688,4.
 8194095605\H,5.3893439196,3.9068316465,4.0015305763\H,7.7830199616,0.6
 019375656,5.3673472651\H,6.962478873,2.9344171022,5.6709753083\S,-0.42
 06040863,-0.1143588731,-0.1193395206\O,-1.1794822845,-0.6338058211,1.0
 350975617\O,-0.4858138295,-0.7654753959,-1.4424002835\\Version=ES64L-G
 09RevD.01\HF=-2046.8715848\RMSD=7.891e-09\RMSF=1.121e-06\Dipole=1.5379
 518,2.2222493,0.3208498\Quadrupole=6.6145518,3.7410405,-10.3555924,-9.
 5974528,1.3820254,-0.5829107\PG=C01 [X(C36H28N2O2S1)]\\@


 THE GREAT THING ABOUT BEING IMPERFECT IS THE JOY IT BRINGS OTHERS.
   -- SIGN OUTSIDE LAKE AGASSIZ JR. HIGH SCHOOL, FARGO, N.D.
 Job cpu time:       1 days  4 hours 57 minutes 42.3 seconds.
 File lengths (MBytes):  RWF=    501 Int=      0 D2E=      0 Chk=     57 Scr=      1
 Normal termination of Gaussian 09 at Sat Jul 31 18:39:12 2021.
